V -t * -v 1.0a5 -a 0
A -t * -n 1 -p 0 -o 0x7fffffff -c 30 -a 1
A -t * -h 1 -m 1073741823 -s 0
c -t * -i 1 -n Blue
c -t * -i 2 -n Red
n -t * -a 4 -s 4 -S UP -v circle -c black -i black
n -t * -a 0 -s 0 -S UP -v circle -c black -i black
n -t * -a 1 -s 1 -S UP -v circle -c black -i black
n -t * -a 2 -s 2 -S UP -v circle -c black -i black
n -t * -a 3 -s 3 -S UP -v circle -c black -i black
l -t * -s 0 -d 1 -S UP -r 2000000 -D 0.01 -c black -o up
l -t * -s 0 -d 2 -S UP -r 1400000 -D 0.014999999999999999 -c black -o left
l -t * -s 0 -d 3 -S UP -r 1700000 -D 0.012 -c black -o down
l -t * -s 0 -d 4 -S UP -r 1400000 -D 0.02 -c black -o right
q -t * -s 2 -d 0 -a 0.5
q -t * -s 0 -d 2 -a 0.5
q -t * -s 4 -d 0 -a 0.7
q -t * -s 0 -d 4 -a 0.7
+ -t 0.2 -s 3 -d 0 -p cbr -e 1000 -c 2 -i 0 -a 2 -x {3.0 2.0 0 ------- null}
- -t 0.2 -s 3 -d 0 -p cbr -e 1000 -c 2 -i 0 -a 2 -x {3.0 2.0 0 ------- null}
h -t 0.2 -s 3 -d 0 -p cbr -e 1000 -c 2 -i 0 -a 2 -x {3.0 2.0 -1 ------- null}
+ -t 0.205 -s 3 -d 0 -p cbr -e 1000 -c 2 -i 1 -a 2 -x {3.0 2.0 1 ------- null}
- -t 0.205 -s 3 -d 0 -p cbr -e 1000 -c 2 -i 1 -a 2 -x {3.0 2.0 1 ------- null}
h -t 0.205 -s 3 -d 0 -p cbr -e 1000 -c 2 -i 1 -a 2 -x {3.0 2.0 -1 ------- null}
+ -t 0.21 -s 3 -d 0 -p cbr -e 1000 -c 2 -i 2 -a 2 -x {3.0 2.0 2 ------- null}
- -t 0.21 -s 3 -d 0 -p cbr -e 1000 -c 2 -i 2 -a 2 -x {3.0 2.0 2 ------- null}
h -t 0.21 -s 3 -d 0 -p cbr -e 1000 -c 2 -i 2 -a 2 -x {3.0 2.0 -1 ------- null}
+ -t 0.215 -s 3 -d 0 -p cbr -e 1000 -c 2 -i 3 -a 2 -x {3.0 2.0 3 ------- null}
- -t 0.215 -s 3 -d 0 -p cbr -e 1000 -c 2 -i 3 -a 2 -x {3.0 2.0 3 ------- null}
h -t 0.215 -s 3 -d 0 -p cbr -e 1000 -c 2 -i 3 -a 2 -x {3.0 2.0 -1 ------- null}
r -t 0.216705882352941 -s 3 -d 0 -p cbr -e 1000 -c 2 -i 0 -a 2 -x {3.0 2.0 0 ------- null}
+ -t 0.216705882352941 -s 0 -d 2 -p cbr -e 1000 -c 2 -i 0 -a 2 -x {3.0 2.0 0 ------- null}
- -t 0.216705882352941 -s 0 -d 2 -p cbr -e 1000 -c 2 -i 0 -a 2 -x {3.0 2.0 0 ------- null}
h -t 0.216705882352941 -s 0 -d 2 -p cbr -e 1000 -c 2 -i 0 -a 2 -x {3.0 2.0 -1 ------- null}
+ -t 0.22 -s 3 -d 0 -p cbr -e 1000 -c 2 -i 4 -a 2 -x {3.0 2.0 4 ------- null}
- -t 0.22 -s 3 -d 0 -p cbr -e 1000 -c 2 -i 4 -a 2 -x {3.0 2.0 4 ------- null}
h -t 0.22 -s 3 -d 0 -p cbr -e 1000 -c 2 -i 4 -a 2 -x {3.0 2.0 -1 ------- null}
r -t 0.221705882352941 -s 3 -d 0 -p cbr -e 1000 -c 2 -i 1 -a 2 -x {3.0 2.0 1 ------- null}
+ -t 0.221705882352941 -s 0 -d 2 -p cbr -e 1000 -c 2 -i 1 -a 2 -x {3.0 2.0 1 ------- null}
- -t 0.222420168067227 -s 0 -d 2 -p cbr -e 1000 -c 2 -i 1 -a 2 -x {3.0 2.0 1 ------- null}
h -t 0.222420168067227 -s 0 -d 2 -p cbr -e 1000 -c 2 -i 1 -a 2 -x {3.0 2.0 -1 ------- null}
+ -t 0.225 -s 3 -d 0 -p cbr -e 1000 -c 2 -i 5 -a 2 -x {3.0 2.0 5 ------- null}
- -t 0.225 -s 3 -d 0 -p cbr -e 1000 -c 2 -i 5 -a 2 -x {3.0 2.0 5 ------- null}
h -t 0.225 -s 3 -d 0 -p cbr -e 1000 -c 2 -i 5 -a 2 -x {3.0 2.0 -1 ------- null}
r -t 0.226705882352941 -s 3 -d 0 -p cbr -e 1000 -c 2 -i 2 -a 2 -x {3.0 2.0 2 ------- null}
+ -t 0.226705882352941 -s 0 -d 2 -p cbr -e 1000 -c 2 -i 2 -a 2 -x {3.0 2.0 2 ------- null}
- -t 0.228134453781513 -s 0 -d 2 -p cbr -e 1000 -c 2 -i 2 -a 2 -x {3.0 2.0 2 ------- null}
h -t 0.228134453781513 -s 0 -d 2 -p cbr -e 1000 -c 2 -i 2 -a 2 -x {3.0 2.0 -1 ------- null}
+ -t 0.23 -s 3 -d 0 -p cbr -e 1000 -c 2 -i 6 -a 2 -x {3.0 2.0 6 ------- null}
- -t 0.23 -s 3 -d 0 -p cbr -e 1000 -c 2 -i 6 -a 2 -x {3.0 2.0 6 ------- null}
h -t 0.23 -s 3 -d 0 -p cbr -e 1000 -c 2 -i 6 -a 2 -x {3.0 2.0 -1 ------- null}
r -t 0.231705882352941 -s 3 -d 0 -p cbr -e 1000 -c 2 -i 3 -a 2 -x {3.0 2.0 3 ------- null}
+ -t 0.231705882352941 -s 0 -d 2 -p cbr -e 1000 -c 2 -i 3 -a 2 -x {3.0 2.0 3 ------- null}
- -t 0.233848739495798 -s 0 -d 2 -p cbr -e 1000 -c 2 -i 3 -a 2 -x {3.0 2.0 3 ------- null}
h -t 0.233848739495798 -s 0 -d 2 -p cbr -e 1000 -c 2 -i 3 -a 2 -x {3.0 2.0 -1 ------- null}
+ -t 0.235 -s 3 -d 0 -p cbr -e 1000 -c 2 -i 7 -a 2 -x {3.0 2.0 7 ------- null}
- -t 0.235 -s 3 -d 0 -p cbr -e 1000 -c 2 -i 7 -a 2 -x {3.0 2.0 7 ------- null}
h -t 0.235 -s 3 -d 0 -p cbr -e 1000 -c 2 -i 7 -a 2 -x {3.0 2.0 -1 ------- null}
r -t 0.236705882352941 -s 3 -d 0 -p cbr -e 1000 -c 2 -i 4 -a 2 -x {3.0 2.0 4 ------- null}
+ -t 0.236705882352941 -s 0 -d 2 -p cbr -e 1000 -c 2 -i 4 -a 2 -x {3.0 2.0 4 ------- null}
r -t 0.237420168067227 -s 0 -d 2 -p cbr -e 1000 -c 2 -i 0 -a 2 -x {3.0 2.0 0 ------- null}
- -t 0.239563025210084 -s 0 -d 2 -p cbr -e 1000 -c 2 -i 4 -a 2 -x {3.0 2.0 4 ------- null}
h -t 0.239563025210084 -s 0 -d 2 -p cbr -e 1000 -c 2 -i 4 -a 2 -x {3.0 2.0 -1 ------- null}
+ -t 0.24 -s 3 -d 0 -p cbr -e 1000 -c 2 -i 8 -a 2 -x {3.0 2.0 8 ------- null}
- -t 0.24 -s 3 -d 0 -p cbr -e 1000 -c 2 -i 8 -a 2 -x {3.0 2.0 8 ------- null}
h -t 0.24 -s 3 -d 0 -p cbr -e 1000 -c 2 -i 8 -a 2 -x {3.0 2.0 -1 ------- null}
r -t 0.241705882352941 -s 3 -d 0 -p cbr -e 1000 -c 2 -i 5 -a 2 -x {3.0 2.0 5 ------- null}
+ -t 0.241705882352941 -s 0 -d 2 -p cbr -e 1000 -c 2 -i 5 -a 2 -x {3.0 2.0 5 ------- null}
r -t 0.243134453781513 -s 0 -d 2 -p cbr -e 1000 -c 2 -i 1 -a 2 -x {3.0 2.0 1 ------- null}
+ -t 0.245 -s 3 -d 0 -p cbr -e 1000 -c 2 -i 9 -a 2 -x {3.0 2.0 9 ------- null}
- -t 0.245 -s 3 -d 0 -p cbr -e 1000 -c 2 -i 9 -a 2 -x {3.0 2.0 9 ------- null}
h -t 0.245 -s 3 -d 0 -p cbr -e 1000 -c 2 -i 9 -a 2 -x {3.0 2.0 -1 ------- null}
- -t 0.24527731092437 -s 0 -d 2 -p cbr -e 1000 -c 2 -i 5 -a 2 -x {3.0 2.0 5 ------- null}
h -t 0.24527731092437 -s 0 -d 2 -p cbr -e 1000 -c 2 -i 5 -a 2 -x {3.0 2.0 -1 ------- null}
r -t 0.246705882352941 -s 3 -d 0 -p cbr -e 1000 -c 2 -i 6 -a 2 -x {3.0 2.0 6 ------- null}
+ -t 0.246705882352941 -s 0 -d 2 -p cbr -e 1000 -c 2 -i 6 -a 2 -x {3.0 2.0 6 ------- null}
r -t 0.248848739495798 -s 0 -d 2 -p cbr -e 1000 -c 2 -i 2 -a 2 -x {3.0 2.0 2 ------- null}
+ -t 0.25 -s 3 -d 0 -p cbr -e 1000 -c 2 -i 10 -a 2 -x {3.0 2.0 10 ------- null}
- -t 0.25 -s 3 -d 0 -p cbr -e 1000 -c 2 -i 10 -a 2 -x {3.0 2.0 10 ------- null}
h -t 0.25 -s 3 -d 0 -p cbr -e 1000 -c 2 -i 10 -a 2 -x {3.0 2.0 -1 ------- null}
- -t 0.250991596638656 -s 0 -d 2 -p cbr -e 1000 -c 2 -i 6 -a 2 -x {3.0 2.0 6 ------- null}
h -t 0.250991596638656 -s 0 -d 2 -p cbr -e 1000 -c 2 -i 6 -a 2 -x {3.0 2.0 -1 ------- null}
r -t 0.251705882352941 -s 3 -d 0 -p cbr -e 1000 -c 2 -i 7 -a 2 -x {3.0 2.0 7 ------- null}
+ -t 0.251705882352941 -s 0 -d 2 -p cbr -e 1000 -c 2 -i 7 -a 2 -x {3.0 2.0 7 ------- null}
r -t 0.254563025210084 -s 0 -d 2 -p cbr -e 1000 -c 2 -i 3 -a 2 -x {3.0 2.0 3 ------- null}
+ -t 0.255 -s 3 -d 0 -p cbr -e 1000 -c 2 -i 11 -a 2 -x {3.0 2.0 11 ------- null}
- -t 0.255 -s 3 -d 0 -p cbr -e 1000 -c 2 -i 11 -a 2 -x {3.0 2.0 11 ------- null}
h -t 0.255 -s 3 -d 0 -p cbr -e 1000 -c 2 -i 11 -a 2 -x {3.0 2.0 -1 ------- null}
r -t 0.256705882352941 -s 3 -d 0 -p cbr -e 1000 -c 2 -i 8 -a 2 -x {3.0 2.0 8 ------- null}
+ -t 0.256705882352941 -s 0 -d 2 -p cbr -e 1000 -c 2 -i 8 -a 2 -x {3.0 2.0 8 ------- null}
- -t 0.256705882352941 -s 0 -d 2 -p cbr -e 1000 -c 2 -i 7 -a 2 -x {3.0 2.0 7 ------- null}
h -t 0.256705882352941 -s 0 -d 2 -p cbr -e 1000 -c 2 -i 7 -a 2 -x {3.0 2.0 -1 ------- null}
+ -t 0.26 -s 3 -d 0 -p cbr -e 1000 -c 2 -i 12 -a 2 -x {3.0 2.0 12 ------- null}
- -t 0.26 -s 3 -d 0 -p cbr -e 1000 -c 2 -i 12 -a 2 -x {3.0 2.0 12 ------- null}
h -t 0.26 -s 3 -d 0 -p cbr -e 1000 -c 2 -i 12 -a 2 -x {3.0 2.0 -1 ------- null}
r -t 0.26027731092437 -s 0 -d 2 -p cbr -e 1000 -c 2 -i 4 -a 2 -x {3.0 2.0 4 ------- null}
r -t 0.261705882352941 -s 3 -d 0 -p cbr -e 1000 -c 2 -i 9 -a 2 -x {3.0 2.0 9 ------- null}
+ -t 0.261705882352941 -s 0 -d 2 -p cbr -e 1000 -c 2 -i 9 -a 2 -x {3.0 2.0 9 ------- null}
- -t 0.262420168067227 -s 0 -d 2 -p cbr -e 1000 -c 2 -i 8 -a 2 -x {3.0 2.0 8 ------- null}
h -t 0.262420168067227 -s 0 -d 2 -p cbr -e 1000 -c 2 -i 8 -a 2 -x {3.0 2.0 -1 ------- null}
+ -t 0.265 -s 3 -d 0 -p cbr -e 1000 -c 2 -i 13 -a 2 -x {3.0 2.0 13 ------- null}
- -t 0.265 -s 3 -d 0 -p cbr -e 1000 -c 2 -i 13 -a 2 -x {3.0 2.0 13 ------- null}
h -t 0.265 -s 3 -d 0 -p cbr -e 1000 -c 2 -i 13 -a 2 -x {3.0 2.0 -1 ------- null}
r -t 0.265991596638656 -s 0 -d 2 -p cbr -e 1000 -c 2 -i 5 -a 2 -x {3.0 2.0 5 ------- null}
r -t 0.266705882352941 -s 3 -d 0 -p cbr -e 1000 -c 2 -i 10 -a 2 -x {3.0 2.0 10 ------- null}
+ -t 0.266705882352941 -s 0 -d 2 -p cbr -e 1000 -c 2 -i 10 -a 2 -x {3.0 2.0 10 ------- null}
- -t 0.268134453781513 -s 0 -d 2 -p cbr -e 1000 -c 2 -i 9 -a 2 -x {3.0 2.0 9 ------- null}
h -t 0.268134453781513 -s 0 -d 2 -p cbr -e 1000 -c 2 -i 9 -a 2 -x {3.0 2.0 -1 ------- null}
+ -t 0.27 -s 3 -d 0 -p cbr -e 1000 -c 2 -i 14 -a 2 -x {3.0 2.0 14 ------- null}
- -t 0.27 -s 3 -d 0 -p cbr -e 1000 -c 2 -i 14 -a 2 -x {3.0 2.0 14 ------- null}
h -t 0.27 -s 3 -d 0 -p cbr -e 1000 -c 2 -i 14 -a 2 -x {3.0 2.0 -1 ------- null}
r -t 0.271705882352941 -s 0 -d 2 -p cbr -e 1000 -c 2 -i 6 -a 2 -x {3.0 2.0 6 ------- null}
r -t 0.271705882352941 -s 3 -d 0 -p cbr -e 1000 -c 2 -i 11 -a 2 -x {3.0 2.0 11 ------- null}
+ -t 0.271705882352941 -s 0 -d 2 -p cbr -e 1000 -c 2 -i 11 -a 2 -x {3.0 2.0 11 ------- null}
- -t 0.273848739495798 -s 0 -d 2 -p cbr -e 1000 -c 2 -i 10 -a 2 -x {3.0 2.0 10 ------- null}
h -t 0.273848739495798 -s 0 -d 2 -p cbr -e 1000 -c 2 -i 10 -a 2 -x {3.0 2.0 -1 ------- null}
+ -t 0.275 -s 3 -d 0 -p cbr -e 1000 -c 2 -i 15 -a 2 -x {3.0 2.0 15 ------- null}
- -t 0.275 -s 3 -d 0 -p cbr -e 1000 -c 2 -i 15 -a 2 -x {3.0 2.0 15 ------- null}
h -t 0.275 -s 3 -d 0 -p cbr -e 1000 -c 2 -i 15 -a 2 -x {3.0 2.0 -1 ------- null}
r -t 0.276705882352941 -s 3 -d 0 -p cbr -e 1000 -c 2 -i 12 -a 2 -x {3.0 2.0 12 ------- null}
+ -t 0.276705882352941 -s 0 -d 2 -p cbr -e 1000 -c 2 -i 12 -a 2 -x {3.0 2.0 12 ------- null}
r -t 0.277420168067227 -s 0 -d 2 -p cbr -e 1000 -c 2 -i 7 -a 2 -x {3.0 2.0 7 ------- null}
- -t 0.279563025210084 -s 0 -d 2 -p cbr -e 1000 -c 2 -i 11 -a 2 -x {3.0 2.0 11 ------- null}
h -t 0.279563025210084 -s 0 -d 2 -p cbr -e 1000 -c 2 -i 11 -a 2 -x {3.0 2.0 -1 ------- null}
+ -t 0.28 -s 3 -d 0 -p cbr -e 1000 -c 2 -i 16 -a 2 -x {3.0 2.0 16 ------- null}
- -t 0.28 -s 3 -d 0 -p cbr -e 1000 -c 2 -i 16 -a 2 -x {3.0 2.0 16 ------- null}
h -t 0.28 -s 3 -d 0 -p cbr -e 1000 -c 2 -i 16 -a 2 -x {3.0 2.0 -1 ------- null}
r -t 0.281705882352941 -s 3 -d 0 -p cbr -e 1000 -c 2 -i 13 -a 2 -x {3.0 2.0 13 ------- null}
+ -t 0.281705882352941 -s 0 -d 2 -p cbr -e 1000 -c 2 -i 13 -a 2 -x {3.0 2.0 13 ------- null}
r -t 0.283134453781513 -s 0 -d 2 -p cbr -e 1000 -c 2 -i 8 -a 2 -x {3.0 2.0 8 ------- null}
+ -t 0.285 -s 3 -d 0 -p cbr -e 1000 -c 2 -i 17 -a 2 -x {3.0 2.0 17 ------- null}
- -t 0.285 -s 3 -d 0 -p cbr -e 1000 -c 2 -i 17 -a 2 -x {3.0 2.0 17 ------- null}
h -t 0.285 -s 3 -d 0 -p cbr -e 1000 -c 2 -i 17 -a 2 -x {3.0 2.0 -1 ------- null}
- -t 0.28527731092437 -s 0 -d 2 -p cbr -e 1000 -c 2 -i 12 -a 2 -x {3.0 2.0 12 ------- null}
h -t 0.28527731092437 -s 0 -d 2 -p cbr -e 1000 -c 2 -i 12 -a 2 -x {3.0 2.0 -1 ------- null}
r -t 0.286705882352941 -s 3 -d 0 -p cbr -e 1000 -c 2 -i 14 -a 2 -x {3.0 2.0 14 ------- null}
+ -t 0.286705882352941 -s 0 -d 2 -p cbr -e 1000 -c 2 -i 14 -a 2 -x {3.0 2.0 14 ------- null}
r -t 0.288848739495798 -s 0 -d 2 -p cbr -e 1000 -c 2 -i 9 -a 2 -x {3.0 2.0 9 ------- null}
+ -t 0.29 -s 3 -d 0 -p cbr -e 1000 -c 2 -i 18 -a 2 -x {3.0 2.0 18 ------- null}
- -t 0.29 -s 3 -d 0 -p cbr -e 1000 -c 2 -i 18 -a 2 -x {3.0 2.0 18 ------- null}
h -t 0.29 -s 3 -d 0 -p cbr -e 1000 -c 2 -i 18 -a 2 -x {3.0 2.0 -1 ------- null}
- -t 0.290991596638656 -s 0 -d 2 -p cbr -e 1000 -c 2 -i 13 -a 2 -x {3.0 2.0 13 ------- null}
h -t 0.290991596638656 -s 0 -d 2 -p cbr -e 1000 -c 2 -i 13 -a 2 -x {3.0 2.0 -1 ------- null}
r -t 0.291705882352941 -s 3 -d 0 -p cbr -e 1000 -c 2 -i 15 -a 2 -x {3.0 2.0 15 ------- null}
+ -t 0.291705882352941 -s 0 -d 2 -p cbr -e 1000 -c 2 -i 15 -a 2 -x {3.0 2.0 15 ------- null}
r -t 0.294563025210084 -s 0 -d 2 -p cbr -e 1000 -c 2 -i 10 -a 2 -x {3.0 2.0 10 ------- null}
+ -t 0.295 -s 3 -d 0 -p cbr -e 1000 -c 2 -i 19 -a 2 -x {3.0 2.0 19 ------- null}
- -t 0.295 -s 3 -d 0 -p cbr -e 1000 -c 2 -i 19 -a 2 -x {3.0 2.0 19 ------- null}
h -t 0.295 -s 3 -d 0 -p cbr -e 1000 -c 2 -i 19 -a 2 -x {3.0 2.0 -1 ------- null}
r -t 0.296705882352941 -s 3 -d 0 -p cbr -e 1000 -c 2 -i 16 -a 2 -x {3.0 2.0 16 ------- null}
+ -t 0.296705882352941 -s 0 -d 2 -p cbr -e 1000 -c 2 -i 16 -a 2 -x {3.0 2.0 16 ------- null}
- -t 0.296705882352941 -s 0 -d 2 -p cbr -e 1000 -c 2 -i 14 -a 2 -x {3.0 2.0 14 ------- null}
h -t 0.296705882352941 -s 0 -d 2 -p cbr -e 1000 -c 2 -i 14 -a 2 -x {3.0 2.0 -1 ------- null}
+ -t 0.3 -s 3 -d 0 -p cbr -e 1000 -c 2 -i 20 -a 2 -x {3.0 2.0 20 ------- null}
- -t 0.3 -s 3 -d 0 -p cbr -e 1000 -c 2 -i 20 -a 2 -x {3.0 2.0 20 ------- null}
h -t 0.3 -s 3 -d 0 -p cbr -e 1000 -c 2 -i 20 -a 2 -x {3.0 2.0 -1 ------- null}
r -t 0.30027731092437 -s 0 -d 2 -p cbr -e 1000 -c 2 -i 11 -a 2 -x {3.0 2.0 11 ------- null}
r -t 0.301705882352941 -s 3 -d 0 -p cbr -e 1000 -c 2 -i 17 -a 2 -x {3.0 2.0 17 ------- null}
+ -t 0.301705882352941 -s 0 -d 2 -p cbr -e 1000 -c 2 -i 17 -a 2 -x {3.0 2.0 17 ------- null}
- -t 0.302420168067227 -s 0 -d 2 -p cbr -e 1000 -c 2 -i 15 -a 2 -x {3.0 2.0 15 ------- null}
h -t 0.302420168067227 -s 0 -d 2 -p cbr -e 1000 -c 2 -i 15 -a 2 -x {3.0 2.0 -1 ------- null}
+ -t 0.305 -s 3 -d 0 -p cbr -e 1000 -c 2 -i 21 -a 2 -x {3.0 2.0 21 ------- null}
- -t 0.305 -s 3 -d 0 -p cbr -e 1000 -c 2 -i 21 -a 2 -x {3.0 2.0 21 ------- null}
h -t 0.305 -s 3 -d 0 -p cbr -e 1000 -c 2 -i 21 -a 2 -x {3.0 2.0 -1 ------- null}
r -t 0.305991596638656 -s 0 -d 2 -p cbr -e 1000 -c 2 -i 12 -a 2 -x {3.0 2.0 12 ------- null}
r -t 0.306705882352941 -s 3 -d 0 -p cbr -e 1000 -c 2 -i 18 -a 2 -x {3.0 2.0 18 ------- null}
+ -t 0.306705882352941 -s 0 -d 2 -p cbr -e 1000 -c 2 -i 18 -a 2 -x {3.0 2.0 18 ------- null}
- -t 0.308134453781513 -s 0 -d 2 -p cbr -e 1000 -c 2 -i 16 -a 2 -x {3.0 2.0 16 ------- null}
h -t 0.308134453781513 -s 0 -d 2 -p cbr -e 1000 -c 2 -i 16 -a 2 -x {3.0 2.0 -1 ------- null}
+ -t 0.31 -s 3 -d 0 -p cbr -e 1000 -c 2 -i 22 -a 2 -x {3.0 2.0 22 ------- null}
- -t 0.31 -s 3 -d 0 -p cbr -e 1000 -c 2 -i 22 -a 2 -x {3.0 2.0 22 ------- null}
h -t 0.31 -s 3 -d 0 -p cbr -e 1000 -c 2 -i 22 -a 2 -x {3.0 2.0 -1 ------- null}
r -t 0.311705882352941 -s 3 -d 0 -p cbr -e 1000 -c 2 -i 19 -a 2 -x {3.0 2.0 19 ------- null}
+ -t 0.311705882352941 -s 0 -d 2 -p cbr -e 1000 -c 2 -i 19 -a 2 -x {3.0 2.0 19 ------- null}
r -t 0.311705882352941 -s 0 -d 2 -p cbr -e 1000 -c 2 -i 13 -a 2 -x {3.0 2.0 13 ------- null}
- -t 0.313848739495799 -s 0 -d 2 -p cbr -e 1000 -c 2 -i 17 -a 2 -x {3.0 2.0 17 ------- null}
h -t 0.313848739495799 -s 0 -d 2 -p cbr -e 1000 -c 2 -i 17 -a 2 -x {3.0 2.0 -1 ------- null}
+ -t 0.315 -s 3 -d 0 -p cbr -e 1000 -c 2 -i 23 -a 2 -x {3.0 2.0 23 ------- null}
- -t 0.315 -s 3 -d 0 -p cbr -e 1000 -c 2 -i 23 -a 2 -x {3.0 2.0 23 ------- null}
h -t 0.315 -s 3 -d 0 -p cbr -e 1000 -c 2 -i 23 -a 2 -x {3.0 2.0 -1 ------- null}
r -t 0.316705882352941 -s 3 -d 0 -p cbr -e 1000 -c 2 -i 20 -a 2 -x {3.0 2.0 20 ------- null}
+ -t 0.316705882352941 -s 0 -d 2 -p cbr -e 1000 -c 2 -i 20 -a 2 -x {3.0 2.0 20 ------- null}
r -t 0.317420168067227 -s 0 -d 2 -p cbr -e 1000 -c 2 -i 14 -a 2 -x {3.0 2.0 14 ------- null}
- -t 0.319563025210084 -s 0 -d 2 -p cbr -e 1000 -c 2 -i 18 -a 2 -x {3.0 2.0 18 ------- null}
h -t 0.319563025210084 -s 0 -d 2 -p cbr -e 1000 -c 2 -i 18 -a 2 -x {3.0 2.0 -1 ------- null}
+ -t 0.32 -s 3 -d 0 -p cbr -e 1000 -c 2 -i 24 -a 2 -x {3.0 2.0 24 ------- null}
- -t 0.32 -s 3 -d 0 -p cbr -e 1000 -c 2 -i 24 -a 2 -x {3.0 2.0 24 ------- null}
h -t 0.32 -s 3 -d 0 -p cbr -e 1000 -c 2 -i 24 -a 2 -x {3.0 2.0 -1 ------- null}
r -t 0.321705882352941 -s 3 -d 0 -p cbr -e 1000 -c 2 -i 21 -a 2 -x {3.0 2.0 21 ------- null}
+ -t 0.321705882352941 -s 0 -d 2 -p cbr -e 1000 -c 2 -i 21 -a 2 -x {3.0 2.0 21 ------- null}
r -t 0.323134453781513 -s 0 -d 2 -p cbr -e 1000 -c 2 -i 15 -a 2 -x {3.0 2.0 15 ------- null}
+ -t 0.325 -s 3 -d 0 -p cbr -e 1000 -c 2 -i 25 -a 2 -x {3.0 2.0 25 ------- null}
- -t 0.325 -s 3 -d 0 -p cbr -e 1000 -c 2 -i 25 -a 2 -x {3.0 2.0 25 ------- null}
h -t 0.325 -s 3 -d 0 -p cbr -e 1000 -c 2 -i 25 -a 2 -x {3.0 2.0 -1 ------- null}
- -t 0.32527731092437 -s 0 -d 2 -p cbr -e 1000 -c 2 -i 19 -a 2 -x {3.0 2.0 19 ------- null}
h -t 0.32527731092437 -s 0 -d 2 -p cbr -e 1000 -c 2 -i 19 -a 2 -x {3.0 2.0 -1 ------- null}
r -t 0.326705882352941 -s 3 -d 0 -p cbr -e 1000 -c 2 -i 22 -a 2 -x {3.0 2.0 22 ------- null}
+ -t 0.326705882352941 -s 0 -d 2 -p cbr -e 1000 -c 2 -i 22 -a 2 -x {3.0 2.0 22 ------- null}
r -t 0.328848739495799 -s 0 -d 2 -p cbr -e 1000 -c 2 -i 16 -a 2 -x {3.0 2.0 16 ------- null}
+ -t 0.33 -s 3 -d 0 -p cbr -e 1000 -c 2 -i 26 -a 2 -x {3.0 2.0 26 ------- null}
- -t 0.33 -s 3 -d 0 -p cbr -e 1000 -c 2 -i 26 -a 2 -x {3.0 2.0 26 ------- null}
h -t 0.33 -s 3 -d 0 -p cbr -e 1000 -c 2 -i 26 -a 2 -x {3.0 2.0 -1 ------- null}
- -t 0.330991596638656 -s 0 -d 2 -p cbr -e 1000 -c 2 -i 20 -a 2 -x {3.0 2.0 20 ------- null}
h -t 0.330991596638656 -s 0 -d 2 -p cbr -e 1000 -c 2 -i 20 -a 2 -x {3.0 2.0 -1 ------- null}
r -t 0.331705882352941 -s 3 -d 0 -p cbr -e 1000 -c 2 -i 23 -a 2 -x {3.0 2.0 23 ------- null}
+ -t 0.331705882352941 -s 0 -d 2 -p cbr -e 1000 -c 2 -i 23 -a 2 -x {3.0 2.0 23 ------- null}
r -t 0.334563025210084 -s 0 -d 2 -p cbr -e 1000 -c 2 -i 17 -a 2 -x {3.0 2.0 17 ------- null}
+ -t 0.335 -s 3 -d 0 -p cbr -e 1000 -c 2 -i 27 -a 2 -x {3.0 2.0 27 ------- null}
- -t 0.335 -s 3 -d 0 -p cbr -e 1000 -c 2 -i 27 -a 2 -x {3.0 2.0 27 ------- null}
h -t 0.335 -s 3 -d 0 -p cbr -e 1000 -c 2 -i 27 -a 2 -x {3.0 2.0 -1 ------- null}
r -t 0.336705882352941 -s 3 -d 0 -p cbr -e 1000 -c 2 -i 24 -a 2 -x {3.0 2.0 24 ------- null}
+ -t 0.336705882352941 -s 0 -d 2 -p cbr -e 1000 -c 2 -i 24 -a 2 -x {3.0 2.0 24 ------- null}
- -t 0.336705882352941 -s 0 -d 2 -p cbr -e 1000 -c 2 -i 21 -a 2 -x {3.0 2.0 21 ------- null}
h -t 0.336705882352941 -s 0 -d 2 -p cbr -e 1000 -c 2 -i 21 -a 2 -x {3.0 2.0 -1 ------- null}
+ -t 0.34 -s 3 -d 0 -p cbr -e 1000 -c 2 -i 28 -a 2 -x {3.0 2.0 28 ------- null}
- -t 0.34 -s 3 -d 0 -p cbr -e 1000 -c 2 -i 28 -a 2 -x {3.0 2.0 28 ------- null}
h -t 0.34 -s 3 -d 0 -p cbr -e 1000 -c 2 -i 28 -a 2 -x {3.0 2.0 -1 ------- null}
r -t 0.34027731092437 -s 0 -d 2 -p cbr -e 1000 -c 2 -i 18 -a 2 -x {3.0 2.0 18 ------- null}
r -t 0.341705882352941 -s 3 -d 0 -p cbr -e 1000 -c 2 -i 25 -a 2 -x {3.0 2.0 25 ------- null}
+ -t 0.341705882352941 -s 0 -d 2 -p cbr -e 1000 -c 2 -i 25 -a 2 -x {3.0 2.0 25 ------- null}
- -t 0.342420168067227 -s 0 -d 2 -p cbr -e 1000 -c 2 -i 22 -a 2 -x {3.0 2.0 22 ------- null}
h -t 0.342420168067227 -s 0 -d 2 -p cbr -e 1000 -c 2 -i 22 -a 2 -x {3.0 2.0 -1 ------- null}
+ -t 0.345 -s 3 -d 0 -p cbr -e 1000 -c 2 -i 29 -a 2 -x {3.0 2.0 29 ------- null}
- -t 0.345 -s 3 -d 0 -p cbr -e 1000 -c 2 -i 29 -a 2 -x {3.0 2.0 29 ------- null}
h -t 0.345 -s 3 -d 0 -p cbr -e 1000 -c 2 -i 29 -a 2 -x {3.0 2.0 -1 ------- null}
r -t 0.345991596638656 -s 0 -d 2 -p cbr -e 1000 -c 2 -i 19 -a 2 -x {3.0 2.0 19 ------- null}
r -t 0.346705882352941 -s 3 -d 0 -p cbr -e 1000 -c 2 -i 26 -a 2 -x {3.0 2.0 26 ------- null}
+ -t 0.346705882352941 -s 0 -d 2 -p cbr -e 1000 -c 2 -i 26 -a 2 -x {3.0 2.0 26 ------- null}
- -t 0.348134453781513 -s 0 -d 2 -p cbr -e 1000 -c 2 -i 23 -a 2 -x {3.0 2.0 23 ------- null}
h -t 0.348134453781513 -s 0 -d 2 -p cbr -e 1000 -c 2 -i 23 -a 2 -x {3.0 2.0 -1 ------- null}
+ -t 0.35 -s 3 -d 0 -p cbr -e 1000 -c 2 -i 30 -a 2 -x {3.0 2.0 30 ------- null}
- -t 0.35 -s 3 -d 0 -p cbr -e 1000 -c 2 -i 30 -a 2 -x {3.0 2.0 30 ------- null}
h -t 0.35 -s 3 -d 0 -p cbr -e 1000 -c 2 -i 30 -a 2 -x {3.0 2.0 -1 ------- null}
r -t 0.351705882352941 -s 3 -d 0 -p cbr -e 1000 -c 2 -i 27 -a 2 -x {3.0 2.0 27 ------- null}
+ -t 0.351705882352941 -s 0 -d 2 -p cbr -e 1000 -c 2 -i 27 -a 2 -x {3.0 2.0 27 ------- null}
r -t 0.351705882352941 -s 0 -d 2 -p cbr -e 1000 -c 2 -i 20 -a 2 -x {3.0 2.0 20 ------- null}
- -t 0.353848739495799 -s 0 -d 2 -p cbr -e 1000 -c 2 -i 24 -a 2 -x {3.0 2.0 24 ------- null}
h -t 0.353848739495799 -s 0 -d 2 -p cbr -e 1000 -c 2 -i 24 -a 2 -x {3.0 2.0 -1 ------- null}
+ -t 0.355 -s 3 -d 0 -p cbr -e 1000 -c 2 -i 31 -a 2 -x {3.0 2.0 31 ------- null}
- -t 0.355 -s 3 -d 0 -p cbr -e 1000 -c 2 -i 31 -a 2 -x {3.0 2.0 31 ------- null}
h -t 0.355 -s 3 -d 0 -p cbr -e 1000 -c 2 -i 31 -a 2 -x {3.0 2.0 -1 ------- null}
r -t 0.356705882352941 -s 3 -d 0 -p cbr -e 1000 -c 2 -i 28 -a 2 -x {3.0 2.0 28 ------- null}
+ -t 0.356705882352941 -s 0 -d 2 -p cbr -e 1000 -c 2 -i 28 -a 2 -x {3.0 2.0 28 ------- null}
r -t 0.357420168067227 -s 0 -d 2 -p cbr -e 1000 -c 2 -i 21 -a 2 -x {3.0 2.0 21 ------- null}
- -t 0.359563025210084 -s 0 -d 2 -p cbr -e 1000 -c 2 -i 25 -a 2 -x {3.0 2.0 25 ------- null}
h -t 0.359563025210084 -s 0 -d 2 -p cbr -e 1000 -c 2 -i 25 -a 2 -x {3.0 2.0 -1 ------- null}
+ -t 0.36 -s 3 -d 0 -p cbr -e 1000 -c 2 -i 32 -a 2 -x {3.0 2.0 32 ------- null}
- -t 0.36 -s 3 -d 0 -p cbr -e 1000 -c 2 -i 32 -a 2 -x {3.0 2.0 32 ------- null}
h -t 0.36 -s 3 -d 0 -p cbr -e 1000 -c 2 -i 32 -a 2 -x {3.0 2.0 -1 ------- null}
r -t 0.361705882352941 -s 3 -d 0 -p cbr -e 1000 -c 2 -i 29 -a 2 -x {3.0 2.0 29 ------- null}
+ -t 0.361705882352941 -s 0 -d 2 -p cbr -e 1000 -c 2 -i 29 -a 2 -x {3.0 2.0 29 ------- null}
r -t 0.363134453781513 -s 0 -d 2 -p cbr -e 1000 -c 2 -i 22 -a 2 -x {3.0 2.0 22 ------- null}
+ -t 0.365 -s 3 -d 0 -p cbr -e 1000 -c 2 -i 33 -a 2 -x {3.0 2.0 33 ------- null}
- -t 0.365 -s 3 -d 0 -p cbr -e 1000 -c 2 -i 33 -a 2 -x {3.0 2.0 33 ------- null}
h -t 0.365 -s 3 -d 0 -p cbr -e 1000 -c 2 -i 33 -a 2 -x {3.0 2.0 -1 ------- null}
- -t 0.36527731092437 -s 0 -d 2 -p cbr -e 1000 -c 2 -i 26 -a 2 -x {3.0 2.0 26 ------- null}
h -t 0.36527731092437 -s 0 -d 2 -p cbr -e 1000 -c 2 -i 26 -a 2 -x {3.0 2.0 -1 ------- null}
r -t 0.366705882352941 -s 3 -d 0 -p cbr -e 1000 -c 2 -i 30 -a 2 -x {3.0 2.0 30 ------- null}
+ -t 0.366705882352941 -s 0 -d 2 -p cbr -e 1000 -c 2 -i 30 -a 2 -x {3.0 2.0 30 ------- null}
r -t 0.368848739495799 -s 0 -d 2 -p cbr -e 1000 -c 2 -i 23 -a 2 -x {3.0 2.0 23 ------- null}
+ -t 0.37 -s 3 -d 0 -p cbr -e 1000 -c 2 -i 34 -a 2 -x {3.0 2.0 34 ------- null}
- -t 0.37 -s 3 -d 0 -p cbr -e 1000 -c 2 -i 34 -a 2 -x {3.0 2.0 34 ------- null}
h -t 0.37 -s 3 -d 0 -p cbr -e 1000 -c 2 -i 34 -a 2 -x {3.0 2.0 -1 ------- null}
- -t 0.370991596638656 -s 0 -d 2 -p cbr -e 1000 -c 2 -i 27 -a 2 -x {3.0 2.0 27 ------- null}
h -t 0.370991596638656 -s 0 -d 2 -p cbr -e 1000 -c 2 -i 27 -a 2 -x {3.0 2.0 -1 ------- null}
r -t 0.371705882352941 -s 3 -d 0 -p cbr -e 1000 -c 2 -i 31 -a 2 -x {3.0 2.0 31 ------- null}
+ -t 0.371705882352941 -s 0 -d 2 -p cbr -e 1000 -c 2 -i 31 -a 2 -x {3.0 2.0 31 ------- null}
r -t 0.374563025210084 -s 0 -d 2 -p cbr -e 1000 -c 2 -i 24 -a 2 -x {3.0 2.0 24 ------- null}
+ -t 0.375 -s 3 -d 0 -p cbr -e 1000 -c 2 -i 35 -a 2 -x {3.0 2.0 35 ------- null}
- -t 0.375 -s 3 -d 0 -p cbr -e 1000 -c 2 -i 35 -a 2 -x {3.0 2.0 35 ------- null}
h -t 0.375 -s 3 -d 0 -p cbr -e 1000 -c 2 -i 35 -a 2 -x {3.0 2.0 -1 ------- null}
r -t 0.376705882352941 -s 3 -d 0 -p cbr -e 1000 -c 2 -i 32 -a 2 -x {3.0 2.0 32 ------- null}
+ -t 0.376705882352941 -s 0 -d 2 -p cbr -e 1000 -c 2 -i 32 -a 2 -x {3.0 2.0 32 ------- null}
- -t 0.376705882352942 -s 0 -d 2 -p cbr -e 1000 -c 2 -i 28 -a 2 -x {3.0 2.0 28 ------- null}
h -t 0.376705882352942 -s 0 -d 2 -p cbr -e 1000 -c 2 -i 28 -a 2 -x {3.0 2.0 -1 ------- null}
+ -t 0.38 -s 3 -d 0 -p cbr -e 1000 -c 2 -i 36 -a 2 -x {3.0 2.0 36 ------- null}
- -t 0.38 -s 3 -d 0 -p cbr -e 1000 -c 2 -i 36 -a 2 -x {3.0 2.0 36 ------- null}
h -t 0.38 -s 3 -d 0 -p cbr -e 1000 -c 2 -i 36 -a 2 -x {3.0 2.0 -1 ------- null}
r -t 0.38027731092437 -s 0 -d 2 -p cbr -e 1000 -c 2 -i 25 -a 2 -x {3.0 2.0 25 ------- null}
r -t 0.381705882352941 -s 3 -d 0 -p cbr -e 1000 -c 2 -i 33 -a 2 -x {3.0 2.0 33 ------- null}
+ -t 0.381705882352941 -s 0 -d 2 -p cbr -e 1000 -c 2 -i 33 -a 2 -x {3.0 2.0 33 ------- null}
- -t 0.382420168067227 -s 0 -d 2 -p cbr -e 1000 -c 2 -i 29 -a 2 -x {3.0 2.0 29 ------- null}
h -t 0.382420168067227 -s 0 -d 2 -p cbr -e 1000 -c 2 -i 29 -a 2 -x {3.0 2.0 -1 ------- null}
+ -t 0.385 -s 3 -d 0 -p cbr -e 1000 -c 2 -i 37 -a 2 -x {3.0 2.0 37 ------- null}
- -t 0.385 -s 3 -d 0 -p cbr -e 1000 -c 2 -i 37 -a 2 -x {3.0 2.0 37 ------- null}
h -t 0.385 -s 3 -d 0 -p cbr -e 1000 -c 2 -i 37 -a 2 -x {3.0 2.0 -1 ------- null}
r -t 0.385991596638656 -s 0 -d 2 -p cbr -e 1000 -c 2 -i 26 -a 2 -x {3.0 2.0 26 ------- null}
r -t 0.386705882352941 -s 3 -d 0 -p cbr -e 1000 -c 2 -i 34 -a 2 -x {3.0 2.0 34 ------- null}
+ -t 0.386705882352941 -s 0 -d 2 -p cbr -e 1000 -c 2 -i 34 -a 2 -x {3.0 2.0 34 ------- null}
- -t 0.388134453781513 -s 0 -d 2 -p cbr -e 1000 -c 2 -i 30 -a 2 -x {3.0 2.0 30 ------- null}
h -t 0.388134453781513 -s 0 -d 2 -p cbr -e 1000 -c 2 -i 30 -a 2 -x {3.0 2.0 -1 ------- null}
+ -t 0.39 -s 3 -d 0 -p cbr -e 1000 -c 2 -i 38 -a 2 -x {3.0 2.0 38 ------- null}
- -t 0.39 -s 3 -d 0 -p cbr -e 1000 -c 2 -i 38 -a 2 -x {3.0 2.0 38 ------- null}
h -t 0.39 -s 3 -d 0 -p cbr -e 1000 -c 2 -i 38 -a 2 -x {3.0 2.0 -1 ------- null}
r -t 0.391705882352941 -s 3 -d 0 -p cbr -e 1000 -c 2 -i 35 -a 2 -x {3.0 2.0 35 ------- null}
+ -t 0.391705882352941 -s 0 -d 2 -p cbr -e 1000 -c 2 -i 35 -a 2 -x {3.0 2.0 35 ------- null}
r -t 0.391705882352942 -s 0 -d 2 -p cbr -e 1000 -c 2 -i 27 -a 2 -x {3.0 2.0 27 ------- null}
- -t 0.393848739495799 -s 0 -d 2 -p cbr -e 1000 -c 2 -i 31 -a 2 -x {3.0 2.0 31 ------- null}
h -t 0.393848739495799 -s 0 -d 2 -p cbr -e 1000 -c 2 -i 31 -a 2 -x {3.0 2.0 -1 ------- null}
+ -t 0.395 -s 3 -d 0 -p cbr -e 1000 -c 2 -i 39 -a 2 -x {3.0 2.0 39 ------- null}
- -t 0.395 -s 3 -d 0 -p cbr -e 1000 -c 2 -i 39 -a 2 -x {3.0 2.0 39 ------- null}
h -t 0.395 -s 3 -d 0 -p cbr -e 1000 -c 2 -i 39 -a 2 -x {3.0 2.0 -1 ------- null}
r -t 0.396705882352941 -s 3 -d 0 -p cbr -e 1000 -c 2 -i 36 -a 2 -x {3.0 2.0 36 ------- null}
+ -t 0.396705882352941 -s 0 -d 2 -p cbr -e 1000 -c 2 -i 36 -a 2 -x {3.0 2.0 36 ------- null}
r -t 0.397420168067227 -s 0 -d 2 -p cbr -e 1000 -c 2 -i 28 -a 2 -x {3.0 2.0 28 ------- null}
- -t 0.399563025210084 -s 0 -d 2 -p cbr -e 1000 -c 2 -i 32 -a 2 -x {3.0 2.0 32 ------- null}
h -t 0.399563025210084 -s 0 -d 2 -p cbr -e 1000 -c 2 -i 32 -a 2 -x {3.0 2.0 -1 ------- null}
+ -t 0.4 -s 1 -d 0 -p tcp -e 40 -c 1 -i 40 -a 1 -x {1.0 4.0 0 ------- null}
- -t 0.4 -s 1 -d 0 -p tcp -e 40 -c 1 -i 40 -a 1 -x {1.0 4.0 0 ------- null}
h -t 0.4 -s 1 -d 0 -p tcp -e 40 -c 1 -i 40 -a 1 -x {1.0 4.0 -1 ------- null}
+ -t 0.4 -s 3 -d 0 -p cbr -e 1000 -c 2 -i 41 -a 2 -x {3.0 2.0 40 ------- null}
- -t 0.4 -s 3 -d 0 -p cbr -e 1000 -c 2 -i 41 -a 2 -x {3.0 2.0 40 ------- null}
h -t 0.4 -s 3 -d 0 -p cbr -e 1000 -c 2 -i 41 -a 2 -x {3.0 2.0 -1 ------- null}
r -t 0.401705882352941 -s 3 -d 0 -p cbr -e 1000 -c 2 -i 37 -a 2 -x {3.0 2.0 37 ------- null}
+ -t 0.401705882352941 -s 0 -d 2 -p cbr -e 1000 -c 2 -i 37 -a 2 -x {3.0 2.0 37 ------- null}
r -t 0.403134453781513 -s 0 -d 2 -p cbr -e 1000 -c 2 -i 29 -a 2 -x {3.0 2.0 29 ------- null}
+ -t 0.405 -s 3 -d 0 -p cbr -e 1000 -c 2 -i 42 -a 2 -x {3.0 2.0 41 ------- null}
- -t 0.405 -s 3 -d 0 -p cbr -e 1000 -c 2 -i 42 -a 2 -x {3.0 2.0 41 ------- null}
h -t 0.405 -s 3 -d 0 -p cbr -e 1000 -c 2 -i 42 -a 2 -x {3.0 2.0 -1 ------- null}
- -t 0.40527731092437 -s 0 -d 2 -p cbr -e 1000 -c 2 -i 33 -a 2 -x {3.0 2.0 33 ------- null}
h -t 0.40527731092437 -s 0 -d 2 -p cbr -e 1000 -c 2 -i 33 -a 2 -x {3.0 2.0 -1 ------- null}
r -t 0.406705882352941 -s 3 -d 0 -p cbr -e 1000 -c 2 -i 38 -a 2 -x {3.0 2.0 38 ------- null}
+ -t 0.406705882352941 -s 0 -d 2 -p cbr -e 1000 -c 2 -i 38 -a 2 -x {3.0 2.0 38 ------- null}
r -t 0.408848739495799 -s 0 -d 2 -p cbr -e 1000 -c 2 -i 30 -a 2 -x {3.0 2.0 30 ------- null}
+ -t 0.41 -s 3 -d 0 -p cbr -e 1000 -c 2 -i 43 -a 2 -x {3.0 2.0 42 ------- null}
- -t 0.41 -s 3 -d 0 -p cbr -e 1000 -c 2 -i 43 -a 2 -x {3.0 2.0 42 ------- null}
h -t 0.41 -s 3 -d 0 -p cbr -e 1000 -c 2 -i 43 -a 2 -x {3.0 2.0 -1 ------- null}
r -t 0.41016 -s 1 -d 0 -p tcp -e 40 -c 1 -i 40 -a 1 -x {1.0 4.0 0 ------- null}
+ -t 0.41016 -s 0 -d 4 -p tcp -e 40 -c 1 -i 40 -a 1 -x {1.0 4.0 0 ------- null}
- -t 0.41016 -s 0 -d 4 -p tcp -e 40 -c 1 -i 40 -a 1 -x {1.0 4.0 0 ------- null}
h -t 0.41016 -s 0 -d 4 -p tcp -e 40 -c 1 -i 40 -a 1 -x {1.0 4.0 -1 ------- null}
- -t 0.410991596638656 -s 0 -d 2 -p cbr -e 1000 -c 2 -i 34 -a 2 -x {3.0 2.0 34 ------- null}
h -t 0.410991596638656 -s 0 -d 2 -p cbr -e 1000 -c 2 -i 34 -a 2 -x {3.0 2.0 -1 ------- null}
r -t 0.411705882352941 -s 3 -d 0 -p cbr -e 1000 -c 2 -i 39 -a 2 -x {3.0 2.0 39 ------- null}
+ -t 0.411705882352941 -s 0 -d 2 -p cbr -e 1000 -c 2 -i 39 -a 2 -x {3.0 2.0 39 ------- null}
r -t 0.414563025210084 -s 0 -d 2 -p cbr -e 1000 -c 2 -i 31 -a 2 -x {3.0 2.0 31 ------- null}
+ -t 0.415 -s 3 -d 0 -p cbr -e 1000 -c 2 -i 44 -a 2 -x {3.0 2.0 43 ------- null}
- -t 0.415 -s 3 -d 0 -p cbr -e 1000 -c 2 -i 44 -a 2 -x {3.0 2.0 43 ------- null}
h -t 0.415 -s 3 -d 0 -p cbr -e 1000 -c 2 -i 44 -a 2 -x {3.0 2.0 -1 ------- null}
r -t 0.416705882352941 -s 3 -d 0 -p cbr -e 1000 -c 2 -i 41 -a 2 -x {3.0 2.0 40 ------- null}
+ -t 0.416705882352941 -s 0 -d 2 -p cbr -e 1000 -c 2 -i 41 -a 2 -x {3.0 2.0 40 ------- null}
- -t 0.416705882352942 -s 0 -d 2 -p cbr -e 1000 -c 2 -i 35 -a 2 -x {3.0 2.0 35 ------- null}
h -t 0.416705882352942 -s 0 -d 2 -p cbr -e 1000 -c 2 -i 35 -a 2 -x {3.0 2.0 -1 ------- null}
+ -t 0.42 -s 3 -d 0 -p cbr -e 1000 -c 2 -i 45 -a 2 -x {3.0 2.0 44 ------- null}
- -t 0.42 -s 3 -d 0 -p cbr -e 1000 -c 2 -i 45 -a 2 -x {3.0 2.0 44 ------- null}
h -t 0.42 -s 3 -d 0 -p cbr -e 1000 -c 2 -i 45 -a 2 -x {3.0 2.0 -1 ------- null}
r -t 0.42027731092437 -s 0 -d 2 -p cbr -e 1000 -c 2 -i 32 -a 2 -x {3.0 2.0 32 ------- null}
r -t 0.421705882352941 -s 3 -d 0 -p cbr -e 1000 -c 2 -i 42 -a 2 -x {3.0 2.0 41 ------- null}
+ -t 0.421705882352941 -s 0 -d 2 -p cbr -e 1000 -c 2 -i 42 -a 2 -x {3.0 2.0 41 ------- null}
- -t 0.422420168067227 -s 0 -d 2 -p cbr -e 1000 -c 2 -i 36 -a 2 -x {3.0 2.0 36 ------- null}
h -t 0.422420168067227 -s 0 -d 2 -p cbr -e 1000 -c 2 -i 36 -a 2 -x {3.0 2.0 -1 ------- null}
+ -t 0.425 -s 3 -d 0 -p cbr -e 1000 -c 2 -i 46 -a 2 -x {3.0 2.0 45 ------- null}
- -t 0.425 -s 3 -d 0 -p cbr -e 1000 -c 2 -i 46 -a 2 -x {3.0 2.0 45 ------- null}
h -t 0.425 -s 3 -d 0 -p cbr -e 1000 -c 2 -i 46 -a 2 -x {3.0 2.0 -1 ------- null}