+ 0.2 3 0 cbr 1000 ------- 2 3.0 2.0 0 0
- 0.2 3 0 cbr 1000 ------- 2 3.0 2.0 0 0
+ 0.205 3 0 cbr 1000 ------- 2 3.0 2.0 1 1
- 0.205 3 0 cbr 1000 ------- 2 3.0 2.0 1 1
+ 0.21 3 0 cbr 1000 ------- 2 3.0 2.0 2 2
- 0.21 3 0 cbr 1000 ------- 2 3.0 2.0 2 2
+ 0.215 3 0 cbr 1000 ------- 2 3.0 2.0 3 3
- 0.215 3 0 cbr 1000 ------- 2 3.0 2.0 3 3
r 0.216706 3 0 cbr 1000 ------- 2 3.0 2.0 0 0
+ 0.216706 0 2 cbr 1000 ------- 2 3.0 2.0 0 0
- 0.216706 0 2 cbr 1000 ------- 2 3.0 2.0 0 0
+ 0.22 3 0 cbr 1000 ------- 2 3.0 2.0 4 4
- 0.22 3 0 cbr 1000 ------- 2 3.0 2.0 4 4
r 0.221706 3 0 cbr 1000 ------- 2 3.0 2.0 1 1
+ 0.221706 0 2 cbr 1000 ------- 2 3.0 2.0 1 1
- 0.22242 0 2 cbr 1000 ------- 2 3.0 2.0 1 1
+ 0.225 3 0 cbr 1000 ------- 2 3.0 2.0 5 5
- 0.225 3 0 cbr 1000 ------- 2 3.0 2.0 5 5
r 0.226706 3 0 cbr 1000 ------- 2 3.0 2.0 2 2
+ 0.226706 0 2 cbr 1000 ------- 2 3.0 2.0 2 2
- 0.228134 0 2 cbr 1000 ------- 2 3.0 2.0 2 2
+ 0.23 3 0 cbr 1000 ------- 2 3.0 2.0 6 6
- 0.23 3 0 cbr 1000 ------- 2 3.0 2.0 6 6
r 0.231706 3 0 cbr 1000 ------- 2 3.0 2.0 3 3
+ 0.231706 0 2 cbr 1000 ------- 2 3.0 2.0 3 3
- 0.233849 0 2 cbr 1000 ------- 2 3.0 2.0 3 3
+ 0.235 3 0 cbr 1000 ------- 2 3.0 2.0 7 7
- 0.235 3 0 cbr 1000 ------- 2 3.0 2.0 7 7
r 0.236706 3 0 cbr 1000 ------- 2 3.0 2.0 4 4
+ 0.236706 0 2 cbr 1000 ------- 2 3.0 2.0 4 4
r 0.23742 0 2 cbr 1000 ------- 2 3.0 2.0 0 0
- 0.239563 0 2 cbr 1000 ------- 2 3.0 2.0 4 4
+ 0.24 3 0 cbr 1000 ------- 2 3.0 2.0 8 8
- 0.24 3 0 cbr 1000 ------- 2 3.0 2.0 8 8
r 0.241706 3 0 cbr 1000 ------- 2 3.0 2.0 5 5
+ 0.241706 0 2 cbr 1000 ------- 2 3.0 2.0 5 5
r 0.243134 0 2 cbr 1000 ------- 2 3.0 2.0 1 1
+ 0.245 3 0 cbr 1000 ------- 2 3.0 2.0 9 9
- 0.245 3 0 cbr 1000 ------- 2 3.0 2.0 9 9
- 0.245277 0 2 cbr 1000 ------- 2 3.0 2.0 5 5
r 0.246706 3 0 cbr 1000 ------- 2 3.0 2.0 6 6
+ 0.246706 0 2 cbr 1000 ------- 2 3.0 2.0 6 6
r 0.248849 0 2 cbr 1000 ------- 2 3.0 2.0 2 2
+ 0.25 3 0 cbr 1000 ------- 2 3.0 2.0 10 10
- 0.25 3 0 cbr 1000 ------- 2 3.0 2.0 10 10
- 0.250992 0 2 cbr 1000 ------- 2 3.0 2.0 6 6
r 0.251706 3 0 cbr 1000 ------- 2 3.0 2.0 7 7
+ 0.251706 0 2 cbr 1000 ------- 2 3.0 2.0 7 7
r 0.254563 0 2 cbr 1000 ------- 2 3.0 2.0 3 3
+ 0.255 3 0 cbr 1000 ------- 2 3.0 2.0 11 11
- 0.255 3 0 cbr 1000 ------- 2 3.0 2.0 11 11
r 0.256706 3 0 cbr 1000 ------- 2 3.0 2.0 8 8
+ 0.256706 0 2 cbr 1000 ------- 2 3.0 2.0 8 8
- 0.256706 0 2 cbr 1000 ------- 2 3.0 2.0 7 7
+ 0.26 3 0 cbr 1000 ------- 2 3.0 2.0 12 12
- 0.26 3 0 cbr 1000 ------- 2 3.0 2.0 12 12
r 0.260277 0 2 cbr 1000 ------- 2 3.0 2.0 4 4
r 0.261706 3 0 cbr 1000 ------- 2 3.0 2.0 9 9
+ 0.261706 0 2 cbr 1000 ------- 2 3.0 2.0 9 9
- 0.26242 0 2 cbr 1000 ------- 2 3.0 2.0 8 8
+ 0.265 3 0 cbr 1000 ------- 2 3.0 2.0 13 13
- 0.265 3 0 cbr 1000 ------- 2 3.0 2.0 13 13
r 0.265992 0 2 cbr 1000 ------- 2 3.0 2.0 5 5
r 0.266706 3 0 cbr 1000 ------- 2 3.0 2.0 10 10
+ 0.266706 0 2 cbr 1000 ------- 2 3.0 2.0 10 10
- 0.268134 0 2 cbr 1000 ------- 2 3.0 2.0 9 9
+ 0.27 3 0 cbr 1000 ------- 2 3.0 2.0 14 14
- 0.27 3 0 cbr 1000 ------- 2 3.0 2.0 14 14
r 0.271706 0 2 cbr 1000 ------- 2 3.0 2.0 6 6
r 0.271706 3 0 cbr 1000 ------- 2 3.0 2.0 11 11
+ 0.271706 0 2 cbr 1000 ------- 2 3.0 2.0 11 11
- 0.273849 0 2 cbr 1000 ------- 2 3.0 2.0 10 10
+ 0.275 3 0 cbr 1000 ------- 2 3.0 2.0 15 15
- 0.275 3 0 cbr 1000 ------- 2 3.0 2.0 15 15
r 0.276706 3 0 cbr 1000 ------- 2 3.0 2.0 12 12
+ 0.276706 0 2 cbr 1000 ------- 2 3.0 2.0 12 12
r 0.27742 0 2 cbr 1000 ------- 2 3.0 2.0 7 7
- 0.279563 0 2 cbr 1000 ------- 2 3.0 2.0 11 11
+ 0.28 3 0 cbr 1000 ------- 2 3.0 2.0 16 16
- 0.28 3 0 cbr 1000 ------- 2 3.0 2.0 16 16
r 0.281706 3 0 cbr 1000 ------- 2 3.0 2.0 13 13
+ 0.281706 0 2 cbr 1000 ------- 2 3.0 2.0 13 13
r 0.283134 0 2 cbr 1000 ------- 2 3.0 2.0 8 8
+ 0.285 3 0 cbr 1000 ------- 2 3.0 2.0 17 17
- 0.285 3 0 cbr 1000 ------- 2 3.0 2.0 17 17
- 0.285277 0 2 cbr 1000 ------- 2 3.0 2.0 12 12
r 0.286706 3 0 cbr 1000 ------- 2 3.0 2.0 14 14
+ 0.286706 0 2 cbr 1000 ------- 2 3.0 2.0 14 14
r 0.288849 0 2 cbr 1000 ------- 2 3.0 2.0 9 9
+ 0.29 3 0 cbr 1000 ------- 2 3.0 2.0 18 18
- 0.29 3 0 cbr 1000 ------- 2 3.0 2.0 18 18
- 0.290992 0 2 cbr 1000 ------- 2 3.0 2.0 13 13
r 0.291706 3 0 cbr 1000 ------- 2 3.0 2.0 15 15
+ 0.291706 0 2 cbr 1000 ------- 2 3.0 2.0 15 15
r 0.294563 0 2 cbr 1000 ------- 2 3.0 2.0 10 10
+ 0.295 3 0 cbr 1000 ------- 2 3.0 2.0 19 19
- 0.295 3 0 cbr 1000 ------- 2 3.0 2.0 19 19
r 0.296706 3 0 cbr 1000 ------- 2 3.0 2.0 16 16
+ 0.296706 0 2 cbr 1000 ------- 2 3.0 2.0 16 16
- 0.296706 0 2 cbr 1000 ------- 2 3.0 2.0 14 14
+ 0.3 3 0 cbr 1000 ------- 2 3.0 2.0 20 20
- 0.3 3 0 cbr 1000 ------- 2 3.0 2.0 20 20
r 0.300277 0 2 cbr 1000 ------- 2 3.0 2.0 11 11
r 0.301706 3 0 cbr 1000 ------- 2 3.0 2.0 17 17
+ 0.301706 0 2 cbr 1000 ------- 2 3.0 2.0 17 17
- 0.30242 0 2 cbr 1000 ------- 2 3.0 2.0 15 15
+ 0.305 3 0 cbr 1000 ------- 2 3.0 2.0 21 21
- 0.305 3 0 cbr 1000 ------- 2 3.0 2.0 21 21
r 0.305992 0 2 cbr 1000 ------- 2 3.0 2.0 12 12
r 0.306706 3 0 cbr 1000 ------- 2 3.0 2.0 18 18
+ 0.306706 0 2 cbr 1000 ------- 2 3.0 2.0 18 18
- 0.308134 0 2 cbr 1000 ------- 2 3.0 2.0 16 16
+ 0.31 3 0 cbr 1000 ------- 2 3.0 2.0 22 22
- 0.31 3 0 cbr 1000 ------- 2 3.0 2.0 22 22
r 0.311706 3 0 cbr 1000 ------- 2 3.0 2.0 19 19
+ 0.311706 0 2 cbr 1000 ------- 2 3.0 2.0 19 19
r 0.311706 0 2 cbr 1000 ------- 2 3.0 2.0 13 13
- 0.313849 0 2 cbr 1000 ------- 2 3.0 2.0 17 17
+ 0.315 3 0 cbr 1000 ------- 2 3.0 2.0 23 23
- 0.315 3 0 cbr 1000 ------- 2 3.0 2.0 23 23
r 0.316706 3 0 cbr 1000 ------- 2 3.0 2.0 20 20
+ 0.316706 0 2 cbr 1000 ------- 2 3.0 2.0 20 20
r 0.31742 0 2 cbr 1000 ------- 2 3.0 2.0 14 14
- 0.319563 0 2 cbr 1000 ------- 2 3.0 2.0 18 18
+ 0.32 3 0 cbr 1000 ------- 2 3.0 2.0 24 24
- 0.32 3 0 cbr 1000 ------- 2 3.0 2.0 24 24
r 0.321706 3 0 cbr 1000 ------- 2 3.0 2.0 21 21
+ 0.321706 0 2 cbr 1000 ------- 2 3.0 2.0 21 21
r 0.323134 0 2 cbr 1000 ------- 2 3.0 2.0 15 15
+ 0.325 3 0 cbr 1000 ------- 2 3.0 2.0 25 25
- 0.325 3 0 cbr 1000 ------- 2 3.0 2.0 25 25
- 0.325277 0 2 cbr 1000 ------- 2 3.0 2.0 19 19
r 0.326706 3 0 cbr 1000 ------- 2 3.0 2.0 22 22
+ 0.326706 0 2 cbr 1000 ------- 2 3.0 2.0 22 22
r 0.328849 0 2 cbr 1000 ------- 2 3.0 2.0 16 16
+ 0.33 3 0 cbr 1000 ------- 2 3.0 2.0 26 26
- 0.33 3 0 cbr 1000 ------- 2 3.0 2.0 26 26
- 0.330992 0 2 cbr 1000 ------- 2 3.0 2.0 20 20
r 0.331706 3 0 cbr 1000 ------- 2 3.0 2.0 23 23
+ 0.331706 0 2 cbr 1000 ------- 2 3.0 2.0 23 23
r 0.334563 0 2 cbr 1000 ------- 2 3.0 2.0 17 17
+ 0.335 3 0 cbr 1000 ------- 2 3.0 2.0 27 27
- 0.335 3 0 cbr 1000 ------- 2 3.0 2.0 27 27
r 0.336706 3 0 cbr 1000 ------- 2 3.0 2.0 24 24
+ 0.336706 0 2 cbr 1000 ------- 2 3.0 2.0 24 24
- 0.336706 0 2 cbr 1000 ------- 2 3.0 2.0 21 21
+ 0.34 3 0 cbr 1000 ------- 2 3.0 2.0 28 28
- 0.34 3 0 cbr 1000 ------- 2 3.0 2.0 28 28
r 0.340277 0 2 cbr 1000 ------- 2 3.0 2.0 18 18
r 0.341706 3 0 cbr 1000 ------- 2 3.0 2.0 25 25
+ 0.341706 0 2 cbr 1000 ------- 2 3.0 2.0 25 25
- 0.34242 0 2 cbr 1000 ------- 2 3.0 2.0 22 22
+ 0.345 3 0 cbr 1000 ------- 2 3.0 2.0 29 29
- 0.345 3 0 cbr 1000 ------- 2 3.0 2.0 29 29
r 0.345992 0 2 cbr 1000 ------- 2 3.0 2.0 19 19
r 0.346706 3 0 cbr 1000 ------- 2 3.0 2.0 26 26
+ 0.346706 0 2 cbr 1000 ------- 2 3.0 2.0 26 26
- 0.348134 0 2 cbr 1000 ------- 2 3.0 2.0 23 23
+ 0.35 3 0 cbr 1000 ------- 2 3.0 2.0 30 30
- 0.35 3 0 cbr 1000 ------- 2 3.0 2.0 30 30
r 0.351706 3 0 cbr 1000 ------- 2 3.0 2.0 27 27
+ 0.351706 0 2 cbr 1000 ------- 2 3.0 2.0 27 27
r 0.351706 0 2 cbr 1000 ------- 2 3.0 2.0 20 20
- 0.353849 0 2 cbr 1000 ------- 2 3.0 2.0 24 24
+ 0.355 3 0 cbr 1000 ------- 2 3.0 2.0 31 31
- 0.355 3 0 cbr 1000 ------- 2 3.0 2.0 31 31
r 0.356706 3 0 cbr 1000 ------- 2 3.0 2.0 28 28
+ 0.356706 0 2 cbr 1000 ------- 2 3.0 2.0 28 28
r 0.35742 0 2 cbr 1000 ------- 2 3.0 2.0 21 21
- 0.359563 0 2 cbr 1000 ------- 2 3.0 2.0 25 25
+ 0.36 3 0 cbr 1000 ------- 2 3.0 2.0 32 32
- 0.36 3 0 cbr 1000 ------- 2 3.0 2.0 32 32
r 0.361706 3 0 cbr 1000 ------- 2 3.0 2.0 29 29
+ 0.361706 0 2 cbr 1000 ------- 2 3.0 2.0 29 29
r 0.363134 0 2 cbr 1000 ------- 2 3.0 2.0 22 22
+ 0.365 3 0 cbr 1000 ------- 2 3.0 2.0 33 33
- 0.365 3 0 cbr 1000 ------- 2 3.0 2.0 33 33
- 0.365277 0 2 cbr 1000 ------- 2 3.0 2.0 26 26
r 0.366706 3 0 cbr 1000 ------- 2 3.0 2.0 30 30
+ 0.366706 0 2 cbr 1000 ------- 2 3.0 2.0 30 30
r 0.368849 0 2 cbr 1000 ------- 2 3.0 2.0 23 23
+ 0.37 3 0 cbr 1000 ------- 2 3.0 2.0 34 34
- 0.37 3 0 cbr 1000 ------- 2 3.0 2.0 34 34
- 0.370992 0 2 cbr 1000 ------- 2 3.0 2.0 27 27
r 0.371706 3 0 cbr 1000 ------- 2 3.0 2.0 31 31
+ 0.371706 0 2 cbr 1000 ------- 2 3.0 2.0 31 31
r 0.374563 0 2 cbr 1000 ------- 2 3.0 2.0 24 24
+ 0.375 3 0 cbr 1000 ------- 2 3.0 2.0 35 35
- 0.375 3 0 cbr 1000 ------- 2 3.0 2.0 35 35
r 0.376706 3 0 cbr 1000 ------- 2 3.0 2.0 32 32
+ 0.376706 0 2 cbr 1000 ------- 2 3.0 2.0 32 32
- 0.376706 0 2 cbr 1000 ------- 2 3.0 2.0 28 28
+ 0.38 3 0 cbr 1000 ------- 2 3.0 2.0 36 36
- 0.38 3 0 cbr 1000 ------- 2 3.0 2.0 36 36
r 0.380277 0 2 cbr 1000 ------- 2 3.0 2.0 25 25
r 0.381706 3 0 cbr 1000 ------- 2 3.0 2.0 33 33
+ 0.381706 0 2 cbr 1000 ------- 2 3.0 2.0 33 33
- 0.38242 0 2 cbr 1000 ------- 2 3.0 2.0 29 29
+ 0.385 3 0 cbr 1000 ------- 2 3.0 2.0 37 37
- 0.385 3 0 cbr 1000 ------- 2 3.0 2.0 37 37
r 0.385992 0 2 cbr 1000 ------- 2 3.0 2.0 26 26
r 0.386706 3 0 cbr 1000 ------- 2 3.0 2.0 34 34
+ 0.386706 0 2 cbr 1000 ------- 2 3.0 2.0 34 34
- 0.388134 0 2 cbr 1000 ------- 2 3.0 2.0 30 30
+ 0.39 3 0 cbr 1000 ------- 2 3.0 2.0 38 38
- 0.39 3 0 cbr 1000 ------- 2 3.0 2.0 38 38
r 0.391706 3 0 cbr 1000 ------- 2 3.0 2.0 35 35
+ 0.391706 0 2 cbr 1000 ------- 2 3.0 2.0 35 35
r 0.391706 0 2 cbr 1000 ------- 2 3.0 2.0 27 27
- 0.393849 0 2 cbr 1000 ------- 2 3.0 2.0 31 31
+ 0.395 3 0 cbr 1000 ------- 2 3.0 2.0 39 39
- 0.395 3 0 cbr 1000 ------- 2 3.0 2.0 39 39
r 0.396706 3 0 cbr 1000 ------- 2 3.0 2.0 36 36
+ 0.396706 0 2 cbr 1000 ------- 2 3.0 2.0 36 36
r 0.39742 0 2 cbr 1000 ------- 2 3.0 2.0 28 28
- 0.399563 0 2 cbr 1000 ------- 2 3.0 2.0 32 32
+ 0.4 1 0 tcp 40 ------- 1 1.0 4.0 0 40
- 0.4 1 0 tcp 40 ------- 1 1.0 4.0 0 40
+ 0.4 3 0 cbr 1000 ------- 2 3.0 2.0 40 41
- 0.4 3 0 cbr 1000 ------- 2 3.0 2.0 40 41
r 0.401706 3 0 cbr 1000 ------- 2 3.0 2.0 37 37
+ 0.401706 0 2 cbr 1000 ------- 2 3.0 2.0 37 37
r 0.403134 0 2 cbr 1000 ------- 2 3.0 2.0 29 29
+ 0.405 3 0 cbr 1000 ------- 2 3.0 2.0 41 42
- 0.405 3 0 cbr 1000 ------- 2 3.0 2.0 41 42
- 0.405277 0 2 cbr 1000 ------- 2 3.0 2.0 33 33
r 0.406706 3 0 cbr 1000 ------- 2 3.0 2.0 38 38
+ 0.406706 0 2 cbr 1000 ------- 2 3.0 2.0 38 38
r 0.408849 0 2 cbr 1000 ------- 2 3.0 2.0 30 30
+ 0.41 3 0 cbr 1000 ------- 2 3.0 2.0 42 43
- 0.41 3 0 cbr 1000 ------- 2 3.0 2.0 42 43
r 0.41016 1 0 tcp 40 ------- 1 1.0 4.0 0 40
+ 0.41016 0 4 tcp 40 ------- 1 1.0 4.0 0 40
- 0.41016 0 4 tcp 40 ------- 1 1.0 4.0 0 40
- 0.410992 0 2 cbr 1000 ------- 2 3.0 2.0 34 34
r 0.411706 3 0 cbr 1000 ------- 2 3.0 2.0 39 39
+ 0.411706 0 2 cbr 1000 ------- 2 3.0 2.0 39 39
r 0.414563 0 2 cbr 1000 ------- 2 3.0 2.0 31 31
+ 0.415 3 0 cbr 1000 ------- 2 3.0 2.0 43 44
- 0.415 3 0 cbr 1000 ------- 2 3.0 2.0 43 44
r 0.416706 3 0 cbr 1000 ------- 2 3.0 2.0 40 41
+ 0.416706 0 2 cbr 1000 ------- 2 3.0 2.0 40 41
- 0.416706 0 2 cbr 1000 ------- 2 3.0 2.0 35 35
+ 0.42 3 0 cbr 1000 ------- 2 3.0 2.0 44 45
- 0.42 3 0 cbr 1000 ------- 2 3.0 2.0 44 45
r 0.420277 0 2 cbr 1000 ------- 2 3.0 2.0 32 32
r 0.421706 3 0 cbr 1000 ------- 2 3.0 2.0 41 42
+ 0.421706 0 2 cbr 1000 ------- 2 3.0 2.0 41 42
- 0.42242 0 2 cbr 1000 ------- 2 3.0 2.0 36 36
+ 0.425 3 0 cbr 1000 ------- 2 3.0 2.0 45 46
- 0.425 3 0 cbr 1000 ------- 2 3.0 2.0 45 46
r 0.425992 0 2 cbr 1000 ------- 2 3.0 2.0 33 33
r 0.426706 3 0 cbr 1000 ------- 2 3.0 2.0 42 43
+ 0.426706 0 2 cbr 1000 ------- 2 3.0 2.0 42 43
- 0.428134 0 2 cbr 1000 ------- 2 3.0 2.0 37 37
+ 0.43 3 0 cbr 1000 ------- 2 3.0 2.0 46 47
- 0.43 3 0 cbr 1000 ------- 2 3.0 2.0 46 47
r 0.430389 0 4 tcp 40 ------- 1 1.0 4.0 0 40
+ 0.430389 4 0 ack 40 ------- 1 4.0 1.0 0 48
- 0.430389 4 0 ack 40 ------- 1 4.0 1.0 0 48
r 0.431706 3 0 cbr 1000 ------- 2 3.0 2.0 43 44
+ 0.431706 0 2 cbr 1000 ------- 2 3.0 2.0 43 44
r 0.431706 0 2 cbr 1000 ------- 2 3.0 2.0 34 34
- 0.433849 0 2 cbr 1000 ------- 2 3.0 2.0 38 38
+ 0.435 3 0 cbr 1000 ------- 2 3.0 2.0 47 49
- 0.435 3 0 cbr 1000 ------- 2 3.0 2.0 47 49
r 0.436706 3 0 cbr 1000 ------- 2 3.0 2.0 44 45
+ 0.436706 0 2 cbr 1000 ------- 2 3.0 2.0 44 45
r 0.43742 0 2 cbr 1000 ------- 2 3.0 2.0 35 35
- 0.439563 0 2 cbr 1000 ------- 2 3.0 2.0 39 39
+ 0.44 3 0 cbr 1000 ------- 2 3.0 2.0 48 50
- 0.44 3 0 cbr 1000 ------- 2 3.0 2.0 48 50
r 0.441706 3 0 cbr 1000 ------- 2 3.0 2.0 45 46
+ 0.441706 0 2 cbr 1000 ------- 2 3.0 2.0 45 46
r 0.443134 0 2 cbr 1000 ------- 2 3.0 2.0 36 36
+ 0.445 3 0 cbr 1000 ------- 2 3.0 2.0 49 51
- 0.445 3 0 cbr 1000 ------- 2 3.0 2.0 49 51
- 0.445277 0 2 cbr 1000 ------- 2 3.0 2.0 40 41
r 0.446706 3 0 cbr 1000 ------- 2 3.0 2.0 46 47
+ 0.446706 0 2 cbr 1000 ------- 2 3.0 2.0 46 47
r 0.448849 0 2 cbr 1000 ------- 2 3.0 2.0 37 37
+ 0.45 3 0 cbr 1000 ------- 2 3.0 2.0 50 52
- 0.45 3 0 cbr 1000 ------- 2 3.0 2.0 50 52
r 0.450617 4 0 ack 40 ------- 1 4.0 1.0 0 48
+ 0.450617 0 1 ack 40 ------- 1 4.0 1.0 0 48
- 0.450617 0 1 ack 40 ------- 1 4.0 1.0 0 48
- 0.450992 0 2 cbr 1000 ------- 2 3.0 2.0 41 42
r 0.451706 3 0 cbr 1000 ------- 2 3.0 2.0 47 49
+ 0.451706 0 2 cbr 1000 ------- 2 3.0 2.0 47 49
r 0.454563 0 2 cbr 1000 ------- 2 3.0 2.0 38 38
+ 0.455 3 0 cbr 1000 ------- 2 3.0 2.0 51 53
- 0.455 3 0 cbr 1000 ------- 2 3.0 2.0 51 53
r 0.456706 3 0 cbr 1000 ------- 2 3.0 2.0 48 50
+ 0.456706 0 2 cbr 1000 ------- 2 3.0 2.0 48 50
- 0.456706 0 2 cbr 1000 ------- 2 3.0 2.0 42 43
+ 0.46 3 0 cbr 1000 ------- 2 3.0 2.0 52 54
- 0.46 3 0 cbr 1000 ------- 2 3.0 2.0 52 54
r 0.460277 0 2 cbr 1000 ------- 2 3.0 2.0 39 39
r 0.460777 0 1 ack 40 ------- 1 4.0 1.0 0 48
+ 0.460777 1 0 tcp 1040 ------- 1 1.0 4.0 1 55
- 0.460777 1 0 tcp 1040 ------- 1 1.0 4.0 1 55
+ 0.460777 1 0 tcp 1040 ------- 1 1.0 4.0 2 56
r 0.461706 3 0 cbr 1000 ------- 2 3.0 2.0 49 51
+ 0.461706 0 2 cbr 1000 ------- 2 3.0 2.0 49 51
- 0.46242 0 2 cbr 1000 ------- 2 3.0 2.0 43 44
- 0.464937 1 0 tcp 1040 ------- 1 1.0 4.0 2 56
+ 0.465 3 0 cbr 1000 ------- 2 3.0 2.0 53 57
- 0.465 3 0 cbr 1000 ------- 2 3.0 2.0 53 57
r 0.465992 0 2 cbr 1000 ------- 2 3.0 2.0 40 41
r 0.466706 3 0 cbr 1000 ------- 2 3.0 2.0 50 52
+ 0.466706 0 2 cbr 1000 ------- 2 3.0 2.0 50 52
- 0.468134 0 2 cbr 1000 ------- 2 3.0 2.0 44 45
+ 0.47 3 0 cbr 1000 ------- 2 3.0 2.0 54 58
- 0.47 3 0 cbr 1000 ------- 2 3.0 2.0 54 58
r 0.471706 3 0 cbr 1000 ------- 2 3.0 2.0 51 53
+ 0.471706 0 2 cbr 1000 ------- 2 3.0 2.0 51 53
r 0.471706 0 2 cbr 1000 ------- 2 3.0 2.0 41 42
- 0.473849 0 2 cbr 1000 ------- 2 3.0 2.0 45 46
r 0.474937 1 0 tcp 1040 ------- 1 1.0 4.0 1 55
+ 0.474937 0 4 tcp 1040 ------- 1 1.0 4.0 1 55
- 0.474937 0 4 tcp 1040 ------- 1 1.0 4.0 1 55
+ 0.475 3 0 cbr 1000 ------- 2 3.0 2.0 55 59
- 0.475 3 0 cbr 1000 ------- 2 3.0 2.0 55 59
r 0.476706 3 0 cbr 1000 ------- 2 3.0 2.0 52 54
+ 0.476706 0 2 cbr 1000 ------- 2 3.0 2.0 52 54
r 0.47742 0 2 cbr 1000 ------- 2 3.0 2.0 42 43
r 0.479097 1 0 tcp 1040 ------- 1 1.0 4.0 2 56
+ 0.479097 0 4 tcp 1040 ------- 1 1.0 4.0 2 56
- 0.479563 0 2 cbr 1000 ------- 2 3.0 2.0 46 47
+ 0.48 3 0 cbr 1000 ------- 2 3.0 2.0 56 60
- 0.48 3 0 cbr 1000 ------- 2 3.0 2.0 56 60
- 0.48088 0 4 tcp 1040 ------- 1 1.0 4.0 2 56
r 0.481706 3 0 cbr 1000 ------- 2 3.0 2.0 53 57
+ 0.481706 0 2 cbr 1000 ------- 2 3.0 2.0 53 57
r 0.483134 0 2 cbr 1000 ------- 2 3.0 2.0 43 44
+ 0.485 3 0 cbr 1000 ------- 2 3.0 2.0 57 61
- 0.485 3 0 cbr 1000 ------- 2 3.0 2.0 57 61
- 0.485277 0 2 cbr 1000 ------- 2 3.0 2.0 47 49
r 0.486706 3 0 cbr 1000 ------- 2 3.0 2.0 54 58
+ 0.486706 0 2 cbr 1000 ------- 2 3.0 2.0 54 58
r 0.488849 0 2 cbr 1000 ------- 2 3.0 2.0 44 45
+ 0.49 3 0 cbr 1000 ------- 2 3.0 2.0 58 62
- 0.49 3 0 cbr 1000 ------- 2 3.0 2.0 58 62
- 0.490992 0 2 cbr 1000 ------- 2 3.0 2.0 48 50
r 0.491706 3 0 cbr 1000 ------- 2 3.0 2.0 55 59
+ 0.491706 0 2 cbr 1000 ------- 2 3.0 2.0 55 59
r 0.494563 0 2 cbr 1000 ------- 2 3.0 2.0 45 46
+ 0.495 3 0 cbr 1000 ------- 2 3.0 2.0 59 63
- 0.495 3 0 cbr 1000 ------- 2 3.0 2.0 59 63
r 0.496706 3 0 cbr 1000 ------- 2 3.0 2.0 56 60
+ 0.496706 0 2 cbr 1000 ------- 2 3.0 2.0 56 60
- 0.496706 0 2 cbr 1000 ------- 2 3.0 2.0 49 51
+ 0.5 3 0 cbr 1000 ------- 2 3.0 2.0 60 64
- 0.5 3 0 cbr 1000 ------- 2 3.0 2.0 60 64
r 0.500277 0 2 cbr 1000 ------- 2 3.0 2.0 46 47
r 0.50088 0 4 tcp 1040 ------- 1 1.0 4.0 1 55
+ 0.50088 4 0 ack 40 ------- 1 4.0 1.0 1 65
- 0.50088 4 0 ack 40 ------- 1 4.0 1.0 1 65
r 0.501706 3 0 cbr 1000 ------- 2 3.0 2.0 57 61
+ 0.501706 0 2 cbr 1000 ------- 2 3.0 2.0 57 61
- 0.50242 0 2 cbr 1000 ------- 2 3.0 2.0 50 52
+ 0.505 3 0 cbr 1000 ------- 2 3.0 2.0 61 66
- 0.505 3 0 cbr 1000 ------- 2 3.0 2.0 61 66
r 0.505992 0 2 cbr 1000 ------- 2 3.0 2.0 47 49
r 0.506706 3 0 cbr 1000 ------- 2 3.0 2.0 58 62
+ 0.506706 0 2 cbr 1000 ------- 2 3.0 2.0 58 62
r 0.506823 0 4 tcp 1040 ------- 1 1.0 4.0 2 56
+ 0.506823 4 0 ack 40 ------- 1 4.0 1.0 2 67
- 0.506823 4 0 ack 40 ------- 1 4.0 1.0 2 67
- 0.508134 0 2 cbr 1000 ------- 2 3.0 2.0 51 53
+ 0.51 3 0 cbr 1000 ------- 2 3.0 2.0 62 68
- 0.51 3 0 cbr 1000 ------- 2 3.0 2.0 62 68
r 0.511706 3 0 cbr 1000 ------- 2 3.0 2.0 59 63
+ 0.511706 0 2 cbr 1000 ------- 2 3.0 2.0 59 63
r 0.511706 0 2 cbr 1000 ------- 2 3.0 2.0 48 50
- 0.513849 0 2 cbr 1000 ------- 2 3.0 2.0 52 54
+ 0.515 3 0 cbr 1000 ------- 2 3.0 2.0 63 69
- 0.515 3 0 cbr 1000 ------- 2 3.0 2.0 63 69
r 0.516706 3 0 cbr 1000 ------- 2 3.0 2.0 60 64
+ 0.516706 0 2 cbr 1000 ------- 2 3.0 2.0 60 64
r 0.51742 0 2 cbr 1000 ------- 2 3.0 2.0 49 51
- 0.519563 0 2 cbr 1000 ------- 2 3.0 2.0 53 57
+ 0.52 3 0 cbr 1000 ------- 2 3.0 2.0 64 70
- 0.52 3 0 cbr 1000 ------- 2 3.0 2.0 64 70
r 0.521109 4 0 ack 40 ------- 1 4.0 1.0 1 65
+ 0.521109 0 1 ack 40 ------- 1 4.0 1.0 1 65
- 0.521109 0 1 ack 40 ------- 1 4.0 1.0 1 65
r 0.521706 3 0 cbr 1000 ------- 2 3.0 2.0 61 66
+ 0.521706 0 2 cbr 1000 ------- 2 3.0 2.0 61 66
r 0.523134 0 2 cbr 1000 ------- 2 3.0 2.0 50 52
+ 0.525 3 0 cbr 1000 ------- 2 3.0 2.0 65 71
- 0.525 3 0 cbr 1000 ------- 2 3.0 2.0 65 71
- 0.525277 0 2 cbr 1000 ------- 2 3.0 2.0 54 58
r 0.526706 3 0 cbr 1000 ------- 2 3.0 2.0 62 68
+ 0.526706 0 2 cbr 1000 ------- 2 3.0 2.0 62 68
r 0.527051 4 0 ack 40 ------- 1 4.0 1.0 2 67
+ 0.527051 0 1 ack 40 ------- 1 4.0 1.0 2 67
- 0.527051 0 1 ack 40 ------- 1 4.0 1.0 2 67
r 0.528849 0 2 cbr 1000 ------- 2 3.0 2.0 51 53
+ 0.53 3 0 cbr 1000 ------- 2 3.0 2.0 66 72
- 0.53 3 0 cbr 1000 ------- 2 3.0 2.0 66 72
- 0.530992 0 2 cbr 1000 ------- 2 3.0 2.0 55 59
r 0.531269 0 1 ack 40 ------- 1 4.0 1.0 1 65
+ 0.531269 1 0 tcp 1040 ------- 1 1.0 4.0 3 73
- 0.531269 1 0 tcp 1040 ------- 1 1.0 4.0 3 73
+ 0.531269 1 0 tcp 1040 ------- 1 1.0 4.0 4 74
r 0.531706 3 0 cbr 1000 ------- 2 3.0 2.0 63 69
+ 0.531706 0 2 cbr 1000 ------- 2 3.0 2.0 63 69
r 0.534563 0 2 cbr 1000 ------- 2 3.0 2.0 52 54
+ 0.535 3 0 cbr 1000 ------- 2 3.0 2.0 67 75
- 0.535 3 0 cbr 1000 ------- 2 3.0 2.0 67 75
- 0.535429 1 0 tcp 1040 ------- 1 1.0 4.0 4 74
r 0.536706 3 0 cbr 1000 ------- 2 3.0 2.0 64 70
+ 0.536706 0 2 cbr 1000 ------- 2 3.0 2.0 64 70
- 0.536706 0 2 cbr 1000 ------- 2 3.0 2.0 56 60
r 0.537211 0 1 ack 40 ------- 1 4.0 1.0 2 67
+ 0.537211 1 0 tcp 1040 ------- 1 1.0 4.0 5 76
+ 0.537211 1 0 tcp 1040 ------- 1 1.0 4.0 6 77
- 0.539589 1 0 tcp 1040 ------- 1 1.0 4.0 5 76
+ 0.54 3 0 cbr 1000 ------- 2 3.0 2.0 68 78
- 0.54 3 0 cbr 1000 ------- 2 3.0 2.0 68 78
r 0.540277 0 2 cbr 1000 ------- 2 3.0 2.0 53 57
r 0.541706 3 0 cbr 1000 ------- 2 3.0 2.0 65 71
+ 0.541706 0 2 cbr 1000 ------- 2 3.0 2.0 65 71
- 0.54242 0 2 cbr 1000 ------- 2 3.0 2.0 57 61
- 0.543749 1 0 tcp 1040 ------- 1 1.0 4.0 6 77
+ 0.545 3 0 cbr 1000 ------- 2 3.0 2.0 69 79
- 0.545 3 0 cbr 1000 ------- 2 3.0 2.0 69 79
r 0.545429 1 0 tcp 1040 ------- 1 1.0 4.0 3 73
+ 0.545429 0 4 tcp 1040 ------- 1 1.0 4.0 3 73
- 0.545429 0 4 tcp 1040 ------- 1 1.0 4.0 3 73
r 0.545992 0 2 cbr 1000 ------- 2 3.0 2.0 54 58
r 0.546706 3 0 cbr 1000 ------- 2 3.0 2.0 66 72
+ 0.546706 0 2 cbr 1000 ------- 2 3.0 2.0 66 72
- 0.548134 0 2 cbr 1000 ------- 2 3.0 2.0 58 62
r 0.549589 1 0 tcp 1040 ------- 1 1.0 4.0 4 74
+ 0.549589 0 4 tcp 1040 ------- 1 1.0 4.0 4 74
+ 0.55 3 0 cbr 1000 ------- 2 3.0 2.0 70 80
- 0.55 3 0 cbr 1000 ------- 2 3.0 2.0 70 80
- 0.551371 0 4 tcp 1040 ------- 1 1.0 4.0 4 74
r 0.551706 3 0 cbr 1000 ------- 2 3.0 2.0 67 75
+ 0.551706 0 2 cbr 1000 ------- 2 3.0 2.0 67 75
r 0.551706 0 2 cbr 1000 ------- 2 3.0 2.0 55 59
r 0.553749 1 0 tcp 1040 ------- 1 1.0 4.0 5 76
+ 0.553749 0 4 tcp 1040 ------- 1 1.0 4.0 5 76
- 0.553849 0 2 cbr 1000 ------- 2 3.0 2.0 59 63
+ 0.555 3 0 cbr 1000 ------- 2 3.0 2.0 71 81
- 0.555 3 0 cbr 1000 ------- 2 3.0 2.0 71 81
r 0.556706 3 0 cbr 1000 ------- 2 3.0 2.0 68 78
+ 0.556706 0 2 cbr 1000 ------- 2 3.0 2.0 68 78
- 0.557314 0 4 tcp 1040 ------- 1 1.0 4.0 5 76
r 0.55742 0 2 cbr 1000 ------- 2 3.0 2.0 56 60
r 0.557909 1 0 tcp 1040 ------- 1 1.0 4.0 6 77
+ 0.557909 0 4 tcp 1040 ------- 1 1.0 4.0 6 77
- 0.559563 0 2 cbr 1000 ------- 2 3.0 2.0 60 64
+ 0.56 3 0 cbr 1000 ------- 2 3.0 2.0 72 82
- 0.56 3 0 cbr 1000 ------- 2 3.0 2.0 72 82
r 0.561706 3 0 cbr 1000 ------- 2 3.0 2.0 69 79
+ 0.561706 0 2 cbr 1000 ------- 2 3.0 2.0 69 79
r 0.563134 0 2 cbr 1000 ------- 2 3.0 2.0 57 61
- 0.563257 0 4 tcp 1040 ------- 1 1.0 4.0 6 77
+ 0.565 3 0 cbr 1000 ------- 2 3.0 2.0 73 83
- 0.565 3 0 cbr 1000 ------- 2 3.0 2.0 73 83
- 0.565277 0 2 cbr 1000 ------- 2 3.0 2.0 61 66
r 0.566706 3 0 cbr 1000 ------- 2 3.0 2.0 70 80
+ 0.566706 0 2 cbr 1000 ------- 2 3.0 2.0 70 80
r 0.568849 0 2 cbr 1000 ------- 2 3.0 2.0 58 62
+ 0.57 3 0 cbr 1000 ------- 2 3.0 2.0 74 84
- 0.57 3 0 cbr 1000 ------- 2 3.0 2.0 74 84
- 0.570992 0 2 cbr 1000 ------- 2 3.0 2.0 62 68
r 0.571371 0 4 tcp 1040 ------- 1 1.0 4.0 3 73
+ 0.571371 4 0 ack 40 ------- 1 4.0 1.0 3 85
- 0.571371 4 0 ack 40 ------- 1 4.0 1.0 3 85
r 0.571706 3 0 cbr 1000 ------- 2 3.0 2.0 71 81
+ 0.571706 0 2 cbr 1000 ------- 2 3.0 2.0 71 81
r 0.574563 0 2 cbr 1000 ------- 2 3.0 2.0 59 63
+ 0.575 3 0 cbr 1000 ------- 2 3.0 2.0 75 86
- 0.575 3 0 cbr 1000 ------- 2 3.0 2.0 75 86
- 0.576706 0 2 cbr 1000 ------- 2 3.0 2.0 63 69
r 0.576706 3 0 cbr 1000 ------- 2 3.0 2.0 72 82
+ 0.576706 0 2 cbr 1000 ------- 2 3.0 2.0 72 82
r 0.577314 0 4 tcp 1040 ------- 1 1.0 4.0 4 74
+ 0.577314 4 0 ack 40 ------- 1 4.0 1.0 4 87
- 0.577314 4 0 ack 40 ------- 1 4.0 1.0 4 87
+ 0.58 3 0 cbr 1000 ------- 2 3.0 2.0 76 88
- 0.58 3 0 cbr 1000 ------- 2 3.0 2.0 76 88
r 0.580277 0 2 cbr 1000 ------- 2 3.0 2.0 60 64
r 0.581706 3 0 cbr 1000 ------- 2 3.0 2.0 73 83
+ 0.581706 0 2 cbr 1000 ------- 2 3.0 2.0 73 83
d 0.581706 0 2 cbr 1000 ------- 2 3.0 2.0 73 83
- 0.58242 0 2 cbr 1000 ------- 2 3.0 2.0 64 70
r 0.583257 0 4 tcp 1040 ------- 1 1.0 4.0 5 76
+ 0.583257 4 0 ack 40 ------- 1 4.0 1.0 5 89
- 0.583257 4 0 ack 40 ------- 1 4.0 1.0 5 89
+ 0.585 3 0 cbr 1000 ------- 2 3.0 2.0 77 90
- 0.585 3 0 cbr 1000 ------- 2 3.0 2.0 77 90
r 0.585992 0 2 cbr 1000 ------- 2 3.0 2.0 61 66
r 0.586706 3 0 cbr 1000 ------- 2 3.0 2.0 74 84
+ 0.586706 0 2 cbr 1000 ------- 2 3.0 2.0 74 84
- 0.588134 0 2 cbr 1000 ------- 2 3.0 2.0 65 71
r 0.5892 0 4 tcp 1040 ------- 1 1.0 4.0 6 77
+ 0.5892 4 0 ack 40 ------- 1 4.0 1.0 6 91
- 0.5892 4 0 ack 40 ------- 1 4.0 1.0 6 91
+ 0.59 3 0 cbr 1000 ------- 2 3.0 2.0 78 92
- 0.59 3 0 cbr 1000 ------- 2 3.0 2.0 78 92
r 0.5916 4 0 ack 40 ------- 1 4.0 1.0 3 85
+ 0.5916 0 1 ack 40 ------- 1 4.0 1.0 3 85
- 0.5916 0 1 ack 40 ------- 1 4.0 1.0 3 85
r 0.591706 0 2 cbr 1000 ------- 2 3.0 2.0 62 68
r 0.591706 3 0 cbr 1000 ------- 2 3.0 2.0 75 86
+ 0.591706 0 2 cbr 1000 ------- 2 3.0 2.0 75 86
- 0.593849 0 2 cbr 1000 ------- 2 3.0 2.0 66 72
+ 0.595 3 0 cbr 1000 ------- 2 3.0 2.0 79 93
- 0.595 3 0 cbr 1000 ------- 2 3.0 2.0 79 93
r 0.596706 3 0 cbr 1000 ------- 2 3.0 2.0 76 88
+ 0.596706 0 2 cbr 1000 ------- 2 3.0 2.0 76 88
r 0.59742 0 2 cbr 1000 ------- 2 3.0 2.0 63 69
r 0.597543 4 0 ack 40 ------- 1 4.0 1.0 4 87
+ 0.597543 0 1 ack 40 ------- 1 4.0 1.0 4 87
- 0.597543 0 1 ack 40 ------- 1 4.0 1.0 4 87
- 0.599563 0 2 cbr 1000 ------- 2 3.0 2.0 67 75
+ 0.6 3 0 cbr 1000 ------- 2 3.0 2.0 80 94
- 0.6 3 0 cbr 1000 ------- 2 3.0 2.0 80 94
r 0.601706 3 0 cbr 1000 ------- 2 3.0 2.0 77 90
+ 0.601706 0 2 cbr 1000 ------- 2 3.0 2.0 77 90
r 0.60176 0 1 ack 40 ------- 1 4.0 1.0 3 85
+ 0.60176 1 0 tcp 1040 ------- 1 1.0 4.0 7 95
- 0.60176 1 0 tcp 1040 ------- 1 1.0 4.0 7 95
+ 0.60176 1 0 tcp 1040 ------- 1 1.0 4.0 8 96
r 0.603134 0 2 cbr 1000 ------- 2 3.0 2.0 64 70
r 0.603486 4 0 ack 40 ------- 1 4.0 1.0 5 89
+ 0.603486 0 1 ack 40 ------- 1 4.0 1.0 5 89
- 0.603486 0 1 ack 40 ------- 1 4.0 1.0 5 89
+ 0.605 3 0 cbr 1000 ------- 2 3.0 2.0 81 97
- 0.605 3 0 cbr 1000 ------- 2 3.0 2.0 81 97
- 0.605277 0 2 cbr 1000 ------- 2 3.0 2.0 68 78
- 0.60592 1 0 tcp 1040 ------- 1 1.0 4.0 8 96
r 0.606706 3 0 cbr 1000 ------- 2 3.0 2.0 78 92
+ 0.606706 0 2 cbr 1000 ------- 2 3.0 2.0 78 92
r 0.607703 0 1 ack 40 ------- 1 4.0 1.0 4 87
+ 0.607703 1 0 tcp 1040 ------- 1 1.0 4.0 9 98
+ 0.607703 1 0 tcp 1040 ------- 1 1.0 4.0 10 99
r 0.608849 0 2 cbr 1000 ------- 2 3.0 2.0 65 71
r 0.609429 4 0 ack 40 ------- 1 4.0 1.0 6 91
+ 0.609429 0 1 ack 40 ------- 1 4.0 1.0 6 91
- 0.609429 0 1 ack 40 ------- 1 4.0 1.0 6 91
+ 0.61 3 0 cbr 1000 ------- 2 3.0 2.0 82 100
- 0.61 3 0 cbr 1000 ------- 2 3.0 2.0 82 100
- 0.61008 1 0 tcp 1040 ------- 1 1.0 4.0 9 98
- 0.610992 0 2 cbr 1000 ------- 2 3.0 2.0 69 79
r 0.611706 3 0 cbr 1000 ------- 2 3.0 2.0 79 93
+ 0.611706 0 2 cbr 1000 ------- 2 3.0 2.0 79 93
r 0.613646 0 1 ack 40 ------- 1 4.0 1.0 5 89
+ 0.613646 1 0 tcp 1040 ------- 1 1.0 4.0 11 101
+ 0.613646 1 0 tcp 1040 ------- 1 1.0 4.0 12 102
- 0.61424 1 0 tcp 1040 ------- 1 1.0 4.0 10 99
r 0.614563 0 2 cbr 1000 ------- 2 3.0 2.0 66 72
+ 0.615 3 0 cbr 1000 ------- 2 3.0 2.0 83 103
- 0.615 3 0 cbr 1000 ------- 2 3.0 2.0 83 103
r 0.61592 1 0 tcp 1040 ------- 1 1.0 4.0 7 95
+ 0.61592 0 4 tcp 1040 ------- 1 1.0 4.0 7 95
- 0.61592 0 4 tcp 1040 ------- 1 1.0 4.0 7 95
- 0.616706 0 2 cbr 1000 ------- 2 3.0 2.0 70 80
r 0.616706 3 0 cbr 1000 ------- 2 3.0 2.0 80 94
+ 0.616706 0 2 cbr 1000 ------- 2 3.0 2.0 80 94
- 0.6184 1 0 tcp 1040 ------- 1 1.0 4.0 11 101
r 0.619589 0 1 ack 40 ------- 1 4.0 1.0 6 91
+ 0.619589 1 0 tcp 1040 ------- 1 1.0 4.0 13 104
+ 0.619589 1 0 tcp 1040 ------- 1 1.0 4.0 14 105
+ 0.62 3 0 cbr 1000 ------- 2 3.0 2.0 84 106
- 0.62 3 0 cbr 1000 ------- 2 3.0 2.0 84 106
r 0.62008 1 0 tcp 1040 ------- 1 1.0 4.0 8 96
+ 0.62008 0 4 tcp 1040 ------- 1 1.0 4.0 8 96
r 0.620277 0 2 cbr 1000 ------- 2 3.0 2.0 67 75
r 0.621706 3 0 cbr 1000 ------- 2 3.0 2.0 81 97
+ 0.621706 0 2 cbr 1000 ------- 2 3.0 2.0 81 97
d 0.621706 0 2 cbr 1000 ------- 2 3.0 2.0 81 97
- 0.621863 0 4 tcp 1040 ------- 1 1.0 4.0 8 96
- 0.62242 0 2 cbr 1000 ------- 2 3.0 2.0 71 81
- 0.62256 1 0 tcp 1040 ------- 1 1.0 4.0 12 102
r 0.62424 1 0 tcp 1040 ------- 1 1.0 4.0 9 98
+ 0.62424 0 4 tcp 1040 ------- 1 1.0 4.0 9 98
+ 0.625 3 0 cbr 1000 ------- 2 3.0 2.0 85 107
- 0.625 3 0 cbr 1000 ------- 2 3.0 2.0 85 107
r 0.625992 0 2 cbr 1000 ------- 2 3.0 2.0 68 78
r 0.626706 3 0 cbr 1000 ------- 2 3.0 2.0 82 100
+ 0.626706 0 2 cbr 1000 ------- 2 3.0 2.0 82 100
- 0.62672 1 0 tcp 1040 ------- 1 1.0 4.0 13 104
- 0.627806 0 4 tcp 1040 ------- 1 1.0 4.0 9 98
- 0.628134 0 2 cbr 1000 ------- 2 3.0 2.0 72 82
r 0.6284 1 0 tcp 1040 ------- 1 1.0 4.0 10 99
+ 0.6284 0 4 tcp 1040 ------- 1 1.0 4.0 10 99
+ 0.63 3 0 cbr 1000 ------- 2 3.0 2.0 86 108
- 0.63 3 0 cbr 1000 ------- 2 3.0 2.0 86 108
- 0.63088 1 0 tcp 1040 ------- 1 1.0 4.0 14 105
r 0.631706 0 2 cbr 1000 ------- 2 3.0 2.0 69 79
r 0.631706 3 0 cbr 1000 ------- 2 3.0 2.0 83 103
+ 0.631706 0 2 cbr 1000 ------- 2 3.0 2.0 83 103
r 0.63256 1 0 tcp 1040 ------- 1 1.0 4.0 11 101
+ 0.63256 0 4 tcp 1040 ------- 1 1.0 4.0 11 101
- 0.633749 0 4 tcp 1040 ------- 1 1.0 4.0 10 99
- 0.633849 0 2 cbr 1000 ------- 2 3.0 2.0 74 84
+ 0.635 3 0 cbr 1000 ------- 2 3.0 2.0 87 109
- 0.635 3 0 cbr 1000 ------- 2 3.0 2.0 87 109
r 0.636706 3 0 cbr 1000 ------- 2 3.0 2.0 84 106
+ 0.636706 0 2 cbr 1000 ------- 2 3.0 2.0 84 106
r 0.63672 1 0 tcp 1040 ------- 1 1.0 4.0 12 102
+ 0.63672 0 4 tcp 1040 ------- 1 1.0 4.0 12 102
r 0.63742 0 2 cbr 1000 ------- 2 3.0 2.0 70 80
- 0.639563 0 2 cbr 1000 ------- 2 3.0 2.0 75 86
- 0.639691 0 4 tcp 1040 ------- 1 1.0 4.0 11 101
+ 0.64 3 0 cbr 1000 ------- 2 3.0 2.0 88 110
- 0.64 3 0 cbr 1000 ------- 2 3.0 2.0 88 110
r 0.64088 1 0 tcp 1040 ------- 1 1.0 4.0 13 104
+ 0.64088 0 4 tcp 1040 ------- 1 1.0 4.0 13 104
r 0.641706 3 0 cbr 1000 ------- 2 3.0 2.0 85 107
+ 0.641706 0 2 cbr 1000 ------- 2 3.0 2.0 85 107
r 0.641863 0 4 tcp 1040 ------- 1 1.0 4.0 7 95
+ 0.641863 4 0 ack 40 ------- 1 4.0 1.0 7 111
- 0.641863 4 0 ack 40 ------- 1 4.0 1.0 7 111
r 0.643134 0 2 cbr 1000 ------- 2 3.0 2.0 71 81
+ 0.645 3 0 cbr 1000 ------- 2 3.0 2.0 89 112
- 0.645 3 0 cbr 1000 ------- 2 3.0 2.0 89 112
r 0.64504 1 0 tcp 1040 ------- 1 1.0 4.0 14 105
+ 0.64504 0 4 tcp 1040 ------- 1 1.0 4.0 14 105
- 0.645277 0 2 cbr 1000 ------- 2 3.0 2.0 76 88
- 0.645634 0 4 tcp 1040 ------- 1 1.0 4.0 12 102
r 0.646706 3 0 cbr 1000 ------- 2 3.0 2.0 86 108
+ 0.646706 0 2 cbr 1000 ------- 2 3.0 2.0 86 108
r 0.647806 0 4 tcp 1040 ------- 1 1.0 4.0 8 96
+ 0.647806 4 0 ack 40 ------- 1 4.0 1.0 8 113
- 0.647806 4 0 ack 40 ------- 1 4.0 1.0 8 113
r 0.648849 0 2 cbr 1000 ------- 2 3.0 2.0 72 82
+ 0.65 3 0 cbr 1000 ------- 2 3.0 2.0 90 114
- 0.65 3 0 cbr 1000 ------- 2 3.0 2.0 90 114
- 0.650992 0 2 cbr 1000 ------- 2 3.0 2.0 77 90
- 0.651577 0 4 tcp 1040 ------- 1 1.0 4.0 13 104
r 0.651706 3 0 cbr 1000 ------- 2 3.0 2.0 87 109
+ 0.651706 0 2 cbr 1000 ------- 2 3.0 2.0 87 109
r 0.653749 0 4 tcp 1040 ------- 1 1.0 4.0 9 98
+ 0.653749 4 0 ack 40 ------- 1 4.0 1.0 9 115
- 0.653749 4 0 ack 40 ------- 1 4.0 1.0 9 115
r 0.654563 0 2 cbr 1000 ------- 2 3.0 2.0 74 84
+ 0.655 3 0 cbr 1000 ------- 2 3.0 2.0 91 116
- 0.655 3 0 cbr 1000 ------- 2 3.0 2.0 91 116
- 0.656706 0 2 cbr 1000 ------- 2 3.0 2.0 78 92