+ 0.5 0 1 tcp 40 ------- 1 0.0 2.0 0 0
- 0.5 0 1 tcp 40 ------- 1 0.0 2.0 0 0
r 0.51016 0 1 tcp 40 ------- 1 0.0 2.0 0 0
+ 0.51016 1 2 tcp 40 ------- 1 0.0 2.0 0 0
- 0.51016 1 2 tcp 40 ------- 1 0.0 2.0 0 0
r 0.610373 1 2 tcp 40 ------- 1 0.0 2.0 0 0
+ 0.610373 2 1 ack 40 ------- 1 2.0 0.0 0 1
- 0.610373 2 1 ack 40 ------- 1 2.0 0.0 0 1
r 0.710587 2 1 ack 40 ------- 1 2.0 0.0 0 1
+ 0.710587 1 0 ack 40 ------- 1 2.0 0.0 0 1
- 0.710587 1 0 ack 40 ------- 1 2.0 0.0 0 1
r 0.720747 1 0 ack 40 ------- 1 2.0 0.0 0 1
+ 0.720747 0 1 tcp 1040 ------- 1 0.0 2.0 1 2
- 0.720747 0 1 tcp 1040 ------- 1 0.0 2.0 1 2
+ 0.720747 0 1 tcp 1040 ------- 1 0.0 2.0 2 3
- 0.724907 0 1 tcp 1040 ------- 1 0.0 2.0 2 3
r 0.734907 0 1 tcp 1040 ------- 1 0.0 2.0 1 2
+ 0.734907 1 2 tcp 1040 ------- 1 0.0 2.0 1 2
- 0.734907 1 2 tcp 1040 ------- 1 0.0 2.0 1 2
r 0.739067 0 1 tcp 1040 ------- 1 0.0 2.0 2 3
+ 0.739067 1 2 tcp 1040 ------- 1 0.0 2.0 2 3
- 0.740453 1 2 tcp 1040 ------- 1 0.0 2.0 2 3
r 0.840453 1 2 tcp 1040 ------- 1 0.0 2.0 1 2
+ 0.840453 2 1 ack 40 ------- 1 2.0 0.0 1 4
- 0.840453 2 1 ack 40 ------- 1 2.0 0.0 1 4
r 0.846 1 2 tcp 1040 ------- 1 0.0 2.0 2 3
+ 0.846 2 1 ack 40 ------- 1 2.0 0.0 2 5
- 0.846 2 1 ack 40 ------- 1 2.0 0.0 2 5
r 0.940667 2 1 ack 40 ------- 1 2.0 0.0 1 4
+ 0.940667 1 0 ack 40 ------- 1 2.0 0.0 1 4
- 0.940667 1 0 ack 40 ------- 1 2.0 0.0 1 4
r 0.946213 2 1 ack 40 ------- 1 2.0 0.0 2 5
+ 0.946213 1 0 ack 40 ------- 1 2.0 0.0 2 5
- 0.946213 1 0 ack 40 ------- 1 2.0 0.0 2 5
r 0.950827 1 0 ack 40 ------- 1 2.0 0.0 1 4
+ 0.950827 0 1 tcp 1040 ------- 1 0.0 2.0 3 6
- 0.950827 0 1 tcp 1040 ------- 1 0.0 2.0 3 6
+ 0.950827 0 1 tcp 1040 ------- 1 0.0 2.0 4 7
- 0.954987 0 1 tcp 1040 ------- 1 0.0 2.0 4 7
r 0.956373 1 0 ack 40 ------- 1 2.0 0.0 2 5
+ 0.956373 0 1 tcp 1040 ------- 1 0.0 2.0 5 8
+ 0.956373 0 1 tcp 1040 ------- 1 0.0 2.0 6 9
- 0.959147 0 1 tcp 1040 ------- 1 0.0 2.0 5 8
- 0.963307 0 1 tcp 1040 ------- 1 0.0 2.0 6 9
r 0.964987 0 1 tcp 1040 ------- 1 0.0 2.0 3 6
+ 0.964987 1 2 tcp 1040 ------- 1 0.0 2.0 3 6
- 0.964987 1 2 tcp 1040 ------- 1 0.0 2.0 3 6
r 0.969147 0 1 tcp 1040 ------- 1 0.0 2.0 4 7
+ 0.969147 1 2 tcp 1040 ------- 1 0.0 2.0 4 7
- 0.970533 1 2 tcp 1040 ------- 1 0.0 2.0 4 7
r 0.973307 0 1 tcp 1040 ------- 1 0.0 2.0 5 8
+ 0.973307 1 2 tcp 1040 ------- 1 0.0 2.0 5 8
- 0.97608 1 2 tcp 1040 ------- 1 0.0 2.0 5 8
r 0.977467 0 1 tcp 1040 ------- 1 0.0 2.0 6 9
+ 0.977467 1 2 tcp 1040 ------- 1 0.0 2.0 6 9
- 0.981627 1 2 tcp 1040 ------- 1 0.0 2.0 6 9
r 1.070533 1 2 tcp 1040 ------- 1 0.0 2.0 3 6
+ 1.070533 2 1 ack 40 ------- 1 2.0 0.0 3 10
- 1.070533 2 1 ack 40 ------- 1 2.0 0.0 3 10
r 1.07608 1 2 tcp 1040 ------- 1 0.0 2.0 4 7
+ 1.07608 2 1 ack 40 ------- 1 2.0 0.0 4 11
- 1.07608 2 1 ack 40 ------- 1 2.0 0.0 4 11
r 1.081627 1 2 tcp 1040 ------- 1 0.0 2.0 5 8
+ 1.081627 2 1 ack 40 ------- 1 2.0 0.0 5 12
- 1.081627 2 1 ack 40 ------- 1 2.0 0.0 5 12
r 1.087173 1 2 tcp 1040 ------- 1 0.0 2.0 6 9
+ 1.087173 2 1 ack 40 ------- 1 2.0 0.0 6 13
- 1.087173 2 1 ack 40 ------- 1 2.0 0.0 6 13
r 1.170747 2 1 ack 40 ------- 1 2.0 0.0 3 10
+ 1.170747 1 0 ack 40 ------- 1 2.0 0.0 3 10
- 1.170747 1 0 ack 40 ------- 1 2.0 0.0 3 10
r 1.176293 2 1 ack 40 ------- 1 2.0 0.0 4 11
+ 1.176293 1 0 ack 40 ------- 1 2.0 0.0 4 11
- 1.176293 1 0 ack 40 ------- 1 2.0 0.0 4 11
r 1.180907 1 0 ack 40 ------- 1 2.0 0.0 3 10
+ 1.180907 0 1 tcp 1040 ------- 1 0.0 2.0 7 14
- 1.180907 0 1 tcp 1040 ------- 1 0.0 2.0 7 14
+ 1.180907 0 1 tcp 1040 ------- 1 0.0 2.0 8 15
r 1.18184 2 1 ack 40 ------- 1 2.0 0.0 5 12
+ 1.18184 1 0 ack 40 ------- 1 2.0 0.0 5 12
- 1.18184 1 0 ack 40 ------- 1 2.0 0.0 5 12
- 1.185067 0 1 tcp 1040 ------- 1 0.0 2.0 8 15
r 1.186453 1 0 ack 40 ------- 1 2.0 0.0 4 11
+ 1.186453 0 1 tcp 1040 ------- 1 0.0 2.0 9 16
+ 1.186453 0 1 tcp 1040 ------- 1 0.0 2.0 10 17
r 1.187387 2 1 ack 40 ------- 1 2.0 0.0 6 13
+ 1.187387 1 0 ack 40 ------- 1 2.0 0.0 6 13
- 1.187387 1 0 ack 40 ------- 1 2.0 0.0 6 13
- 1.189227 0 1 tcp 1040 ------- 1 0.0 2.0 9 16
r 1.192 1 0 ack 40 ------- 1 2.0 0.0 5 12
+ 1.192 0 1 tcp 1040 ------- 1 0.0 2.0 11 18
+ 1.192 0 1 tcp 1040 ------- 1 0.0 2.0 12 19
- 1.193387 0 1 tcp 1040 ------- 1 0.0 2.0 10 17
r 1.195067 0 1 tcp 1040 ------- 1 0.0 2.0 7 14
+ 1.195067 1 2 tcp 1040 ------- 1 0.0 2.0 7 14
- 1.195067 1 2 tcp 1040 ------- 1 0.0 2.0 7 14
- 1.197547 0 1 tcp 1040 ------- 1 0.0 2.0 11 18
r 1.197547 1 0 ack 40 ------- 1 2.0 0.0 6 13
+ 1.197547 0 1 tcp 1040 ------- 1 0.0 2.0 13 20
+ 1.197547 0 1 tcp 1040 ------- 1 0.0 2.0 14 21
r 1.199227 0 1 tcp 1040 ------- 1 0.0 2.0 8 15
+ 1.199227 1 2 tcp 1040 ------- 1 0.0 2.0 8 15
- 1.200613 1 2 tcp 1040 ------- 1 0.0 2.0 8 15
- 1.201707 0 1 tcp 1040 ------- 1 0.0 2.0 12 19
r 1.203387 0 1 tcp 1040 ------- 1 0.0 2.0 9 16
+ 1.203387 1 2 tcp 1040 ------- 1 0.0 2.0 9 16
- 1.205867 0 1 tcp 1040 ------- 1 0.0 2.0 13 20
- 1.20616 1 2 tcp 1040 ------- 1 0.0 2.0 9 16
r 1.207547 0 1 tcp 1040 ------- 1 0.0 2.0 10 17
+ 1.207547 1 2 tcp 1040 ------- 1 0.0 2.0 10 17
- 1.210027 0 1 tcp 1040 ------- 1 0.0 2.0 14 21
r 1.211707 0 1 tcp 1040 ------- 1 0.0 2.0 11 18
+ 1.211707 1 2 tcp 1040 ------- 1 0.0 2.0 11 18
- 1.211707 1 2 tcp 1040 ------- 1 0.0 2.0 10 17
r 1.215867 0 1 tcp 1040 ------- 1 0.0 2.0 12 19
+ 1.215867 1 2 tcp 1040 ------- 1 0.0 2.0 12 19
- 1.217253 1 2 tcp 1040 ------- 1 0.0 2.0 11 18
r 1.220027 0 1 tcp 1040 ------- 1 0.0 2.0 13 20
+ 1.220027 1 2 tcp 1040 ------- 1 0.0 2.0 13 20
- 1.2228 1 2 tcp 1040 ------- 1 0.0 2.0 12 19
r 1.224187 0 1 tcp 1040 ------- 1 0.0 2.0 14 21
+ 1.224187 1 2 tcp 1040 ------- 1 0.0 2.0 14 21
- 1.228347 1 2 tcp 1040 ------- 1 0.0 2.0 13 20
- 1.233893 1 2 tcp 1040 ------- 1 0.0 2.0 14 21
r 1.300613 1 2 tcp 1040 ------- 1 0.0 2.0 7 14
+ 1.300613 2 1 ack 40 ------- 1 2.0 0.0 7 22
- 1.300613 2 1 ack 40 ------- 1 2.0 0.0 7 22
r 1.30616 1 2 tcp 1040 ------- 1 0.0 2.0 8 15
+ 1.30616 2 1 ack 40 ------- 1 2.0 0.0 8 23
- 1.30616 2 1 ack 40 ------- 1 2.0 0.0 8 23
r 1.311707 1 2 tcp 1040 ------- 1 0.0 2.0 9 16
+ 1.311707 2 1 ack 40 ------- 1 2.0 0.0 9 24
- 1.311707 2 1 ack 40 ------- 1 2.0 0.0 9 24
r 1.317253 1 2 tcp 1040 ------- 1 0.0 2.0 10 17
+ 1.317253 2 1 ack 40 ------- 1 2.0 0.0 10 25
- 1.317253 2 1 ack 40 ------- 1 2.0 0.0 10 25
r 1.3228 1 2 tcp 1040 ------- 1 0.0 2.0 11 18
+ 1.3228 2 1 ack 40 ------- 1 2.0 0.0 11 26
- 1.3228 2 1 ack 40 ------- 1 2.0 0.0 11 26
r 1.328347 1 2 tcp 1040 ------- 1 0.0 2.0 12 19
+ 1.328347 2 1 ack 40 ------- 1 2.0 0.0 12 27
- 1.328347 2 1 ack 40 ------- 1 2.0 0.0 12 27
r 1.333893 1 2 tcp 1040 ------- 1 0.0 2.0 13 20
+ 1.333893 2 1 ack 40 ------- 1 2.0 0.0 13 28
- 1.333893 2 1 ack 40 ------- 1 2.0 0.0 13 28
r 1.33944 1 2 tcp 1040 ------- 1 0.0 2.0 14 21
+ 1.33944 2 1 ack 40 ------- 1 2.0 0.0 14 29
- 1.33944 2 1 ack 40 ------- 1 2.0 0.0 14 29
r 1.400827 2 1 ack 40 ------- 1 2.0 0.0 7 22
+ 1.400827 1 0 ack 40 ------- 1 2.0 0.0 7 22
- 1.400827 1 0 ack 40 ------- 1 2.0 0.0 7 22
r 1.406373 2 1 ack 40 ------- 1 2.0 0.0 8 23
+ 1.406373 1 0 ack 40 ------- 1 2.0 0.0 8 23
- 1.406373 1 0 ack 40 ------- 1 2.0 0.0 8 23
r 1.410987 1 0 ack 40 ------- 1 2.0 0.0 7 22
+ 1.410987 0 1 tcp 1040 ------- 1 0.0 2.0 15 30
- 1.410987 0 1 tcp 1040 ------- 1 0.0 2.0 15 30
+ 1.410987 0 1 tcp 1040 ------- 1 0.0 2.0 16 31
r 1.41192 2 1 ack 40 ------- 1 2.0 0.0 9 24
+ 1.41192 1 0 ack 40 ------- 1 2.0 0.0 9 24
- 1.41192 1 0 ack 40 ------- 1 2.0 0.0 9 24
- 1.415147 0 1 tcp 1040 ------- 1 0.0 2.0 16 31
r 1.416533 1 0 ack 40 ------- 1 2.0 0.0 8 23
+ 1.416533 0 1 tcp 1040 ------- 1 0.0 2.0 17 32
+ 1.416533 0 1 tcp 1040 ------- 1 0.0 2.0 18 33
r 1.417467 2 1 ack 40 ------- 1 2.0 0.0 10 25
+ 1.417467 1 0 ack 40 ------- 1 2.0 0.0 10 25
- 1.417467 1 0 ack 40 ------- 1 2.0 0.0 10 25
- 1.419307 0 1 tcp 1040 ------- 1 0.0 2.0 17 32
r 1.42208 1 0 ack 40 ------- 1 2.0 0.0 9 24
+ 1.42208 0 1 tcp 1040 ------- 1 0.0 2.0 19 34
+ 1.42208 0 1 tcp 1040 ------- 1 0.0 2.0 20 35
r 1.423013 2 1 ack 40 ------- 1 2.0 0.0 11 26
+ 1.423013 1 0 ack 40 ------- 1 2.0 0.0 11 26
- 1.423013 1 0 ack 40 ------- 1 2.0 0.0 11 26
- 1.423467 0 1 tcp 1040 ------- 1 0.0 2.0 18 33
r 1.425147 0 1 tcp 1040 ------- 1 0.0 2.0 15 30
+ 1.425147 1 2 tcp 1040 ------- 1 0.0 2.0 15 30
- 1.425147 1 2 tcp 1040 ------- 1 0.0 2.0 15 30
r 1.427627 1 0 ack 40 ------- 1 2.0 0.0 10 25
+ 1.427627 0 1 tcp 1040 ------- 1 0.0 2.0 21 36
+ 1.427627 0 1 tcp 1040 ------- 1 0.0 2.0 22 37
- 1.427627 0 1 tcp 1040 ------- 1 0.0 2.0 19 34
r 1.42856 2 1 ack 40 ------- 1 2.0 0.0 12 27
+ 1.42856 1 0 ack 40 ------- 1 2.0 0.0 12 27
- 1.42856 1 0 ack 40 ------- 1 2.0 0.0 12 27
r 1.429307 0 1 tcp 1040 ------- 1 0.0 2.0 16 31
+ 1.429307 1 2 tcp 1040 ------- 1 0.0 2.0 16 31
- 1.430693 1 2 tcp 1040 ------- 1 0.0 2.0 16 31
- 1.431787 0 1 tcp 1040 ------- 1 0.0 2.0 20 35
r 1.433173 1 0 ack 40 ------- 1 2.0 0.0 11 26
+ 1.433173 0 1 tcp 1040 ------- 1 0.0 2.0 23 38
+ 1.433173 0 1 tcp 1040 ------- 1 0.0 2.0 24 39
r 1.433467 0 1 tcp 1040 ------- 1 0.0 2.0 17 32
+ 1.433467 1 2 tcp 1040 ------- 1 0.0 2.0 17 32
r 1.434107 2 1 ack 40 ------- 1 2.0 0.0 13 28
+ 1.434107 1 0 ack 40 ------- 1 2.0 0.0 13 28
- 1.434107 1 0 ack 40 ------- 1 2.0 0.0 13 28
- 1.435947 0 1 tcp 1040 ------- 1 0.0 2.0 21 36
- 1.43624 1 2 tcp 1040 ------- 1 0.0 2.0 17 32
r 1.437627 0 1 tcp 1040 ------- 1 0.0 2.0 18 33
+ 1.437627 1 2 tcp 1040 ------- 1 0.0 2.0 18 33
r 1.43872 1 0 ack 40 ------- 1 2.0 0.0 12 27
+ 1.43872 0 1 tcp 1040 ------- 1 0.0 2.0 25 40
+ 1.43872 0 1 tcp 1040 ------- 1 0.0 2.0 26 41
r 1.439653 2 1 ack 40 ------- 1 2.0 0.0 14 29
+ 1.439653 1 0 ack 40 ------- 1 2.0 0.0 14 29
- 1.439653 1 0 ack 40 ------- 1 2.0 0.0 14 29
- 1.440107 0 1 tcp 1040 ------- 1 0.0 2.0 22 37
r 1.441787 0 1 tcp 1040 ------- 1 0.0 2.0 19 34
+ 1.441787 1 2 tcp 1040 ------- 1 0.0 2.0 19 34
- 1.441787 1 2 tcp 1040 ------- 1 0.0 2.0 18 33
r 1.444267 1 0 ack 40 ------- 1 2.0 0.0 13 28
+ 1.444267 0 1 tcp 1040 ------- 1 0.0 2.0 27 42
+ 1.444267 0 1 tcp 1040 ------- 1 0.0 2.0 28 43
- 1.444267 0 1 tcp 1040 ------- 1 0.0 2.0 23 38
r 1.445947 0 1 tcp 1040 ------- 1 0.0 2.0 20 35
+ 1.445947 1 2 tcp 1040 ------- 1 0.0 2.0 20 35
- 1.447333 1 2 tcp 1040 ------- 1 0.0 2.0 19 34
- 1.448427 0 1 tcp 1040 ------- 1 0.0 2.0 24 39
r 1.449813 1 0 ack 40 ------- 1 2.0 0.0 14 29
+ 1.449813 0 1 tcp 1040 ------- 1 0.0 2.0 29 44
+ 1.449813 0 1 tcp 1040 ------- 1 0.0 2.0 30 45
r 1.450107 0 1 tcp 1040 ------- 1 0.0 2.0 21 36
+ 1.450107 1 2 tcp 1040 ------- 1 0.0 2.0 21 36
- 1.452587 0 1 tcp 1040 ------- 1 0.0 2.0 25 40
- 1.45288 1 2 tcp 1040 ------- 1 0.0 2.0 20 35
r 1.454267 0 1 tcp 1040 ------- 1 0.0 2.0 22 37
+ 1.454267 1 2 tcp 1040 ------- 1 0.0 2.0 22 37
- 1.456747 0 1 tcp 1040 ------- 1 0.0 2.0 26 41
r 1.458427 0 1 tcp 1040 ------- 1 0.0 2.0 23 38
+ 1.458427 1 2 tcp 1040 ------- 1 0.0 2.0 23 38
- 1.458427 1 2 tcp 1040 ------- 1 0.0 2.0 21 36
- 1.460907 0 1 tcp 1040 ------- 1 0.0 2.0 27 42
r 1.462587 0 1 tcp 1040 ------- 1 0.0 2.0 24 39
+ 1.462587 1 2 tcp 1040 ------- 1 0.0 2.0 24 39
- 1.463973 1 2 tcp 1040 ------- 1 0.0 2.0 22 37
- 1.465067 0 1 tcp 1040 ------- 1 0.0 2.0 28 43
r 1.466747 0 1 tcp 1040 ------- 1 0.0 2.0 25 40
+ 1.466747 1 2 tcp 1040 ------- 1 0.0 2.0 25 40
- 1.469227 0 1 tcp 1040 ------- 1 0.0 2.0 29 44
- 1.46952 1 2 tcp 1040 ------- 1 0.0 2.0 23 38
r 1.470907 0 1 tcp 1040 ------- 1 0.0 2.0 26 41
+ 1.470907 1 2 tcp 1040 ------- 1 0.0 2.0 26 41
- 1.473387 0 1 tcp 1040 ------- 1 0.0 2.0 30 45
r 1.475067 0 1 tcp 1040 ------- 1 0.0 2.0 27 42
+ 1.475067 1 2 tcp 1040 ------- 1 0.0 2.0 27 42
- 1.475067 1 2 tcp 1040 ------- 1 0.0 2.0 24 39
r 1.479227 0 1 tcp 1040 ------- 1 0.0 2.0 28 43
+ 1.479227 1 2 tcp 1040 ------- 1 0.0 2.0 28 43
- 1.480613 1 2 tcp 1040 ------- 1 0.0 2.0 25 40
r 1.483387 0 1 tcp 1040 ------- 1 0.0 2.0 29 44
+ 1.483387 1 2 tcp 1040 ------- 1 0.0 2.0 29 44
- 1.48616 1 2 tcp 1040 ------- 1 0.0 2.0 26 41
r 1.487547 0 1 tcp 1040 ------- 1 0.0 2.0 30 45
+ 1.487547 1 2 tcp 1040 ------- 1 0.0 2.0 30 45
- 1.491707 1 2 tcp 1040 ------- 1 0.0 2.0 27 42
- 1.497253 1 2 tcp 1040 ------- 1 0.0 2.0 28 43
- 1.5028 1 2 tcp 1040 ------- 1 0.0 2.0 29 44
- 1.508347 1 2 tcp 1040 ------- 1 0.0 2.0 30 45
r 1.530693 1 2 tcp 1040 ------- 1 0.0 2.0 15 30
+ 1.530693 2 1 ack 40 ------- 1 2.0 0.0 15 46
- 1.530693 2 1 ack 40 ------- 1 2.0 0.0 15 46
r 1.53624 1 2 tcp 1040 ------- 1 0.0 2.0 16 31
+ 1.53624 2 1 ack 40 ------- 1 2.0 0.0 16 47
- 1.53624 2 1 ack 40 ------- 1 2.0 0.0 16 47
r 1.541787 1 2 tcp 1040 ------- 1 0.0 2.0 17 32
+ 1.541787 2 1 ack 40 ------- 1 2.0 0.0 17 48
- 1.541787 2 1 ack 40 ------- 1 2.0 0.0 17 48
r 1.547333 1 2 tcp 1040 ------- 1 0.0 2.0 18 33
+ 1.547333 2 1 ack 40 ------- 1 2.0 0.0 18 49
- 1.547333 2 1 ack 40 ------- 1 2.0 0.0 18 49
r 1.55288 1 2 tcp 1040 ------- 1 0.0 2.0 19 34
+ 1.55288 2 1 ack 40 ------- 1 2.0 0.0 19 50
- 1.55288 2 1 ack 40 ------- 1 2.0 0.0 19 50
r 1.558427 1 2 tcp 1040 ------- 1 0.0 2.0 20 35
+ 1.558427 2 1 ack 40 ------- 1 2.0 0.0 20 51
- 1.558427 2 1 ack 40 ------- 1 2.0 0.0 20 51
r 1.563973 1 2 tcp 1040 ------- 1 0.0 2.0 21 36
+ 1.563973 2 1 ack 40 ------- 1 2.0 0.0 21 52
- 1.563973 2 1 ack 40 ------- 1 2.0 0.0 21 52
r 1.56952 1 2 tcp 1040 ------- 1 0.0 2.0 22 37
+ 1.56952 2 1 ack 40 ------- 1 2.0 0.0 22 53
- 1.56952 2 1 ack 40 ------- 1 2.0 0.0 22 53
r 1.575067 1 2 tcp 1040 ------- 1 0.0 2.0 23 38
+ 1.575067 2 1 ack 40 ------- 1 2.0 0.0 23 54
- 1.575067 2 1 ack 40 ------- 1 2.0 0.0 23 54
r 1.580613 1 2 tcp 1040 ------- 1 0.0 2.0 24 39
+ 1.580613 2 1 ack 40 ------- 1 2.0 0.0 24 55
- 1.580613 2 1 ack 40 ------- 1 2.0 0.0 24 55
r 1.58616 1 2 tcp 1040 ------- 1 0.0 2.0 25 40
+ 1.58616 2 1 ack 40 ------- 1 2.0 0.0 25 56
- 1.58616 2 1 ack 40 ------- 1 2.0 0.0 25 56
r 1.591707 1 2 tcp 1040 ------- 1 0.0 2.0 26 41
+ 1.591707 2 1 ack 40 ------- 1 2.0 0.0 26 57
- 1.591707 2 1 ack 40 ------- 1 2.0 0.0 26 57
r 1.597253 1 2 tcp 1040 ------- 1 0.0 2.0 27 42
+ 1.597253 2 1 ack 40 ------- 1 2.0 0.0 27 58
- 1.597253 2 1 ack 40 ------- 1 2.0 0.0 27 58
r 1.6028 1 2 tcp 1040 ------- 1 0.0 2.0 28 43
+ 1.6028 2 1 ack 40 ------- 1 2.0 0.0 28 59
- 1.6028 2 1 ack 40 ------- 1 2.0 0.0 28 59
r 1.608347 1 2 tcp 1040 ------- 1 0.0 2.0 29 44
+ 1.608347 2 1 ack 40 ------- 1 2.0 0.0 29 60
- 1.608347 2 1 ack 40 ------- 1 2.0 0.0 29 60
r 1.613893 1 2 tcp 1040 ------- 1 0.0 2.0 30 45
+ 1.613893 2 1 ack 40 ------- 1 2.0 0.0 30 61
- 1.613893 2 1 ack 40 ------- 1 2.0 0.0 30 61
r 1.630907 2 1 ack 40 ------- 1 2.0 0.0 15 46
+ 1.630907 1 0 ack 40 ------- 1 2.0 0.0 15 46
- 1.630907 1 0 ack 40 ------- 1 2.0 0.0 15 46
r 1.636453 2 1 ack 40 ------- 1 2.0 0.0 16 47
+ 1.636453 1 0 ack 40 ------- 1 2.0 0.0 16 47
- 1.636453 1 0 ack 40 ------- 1 2.0 0.0 16 47
r 1.641067 1 0 ack 40 ------- 1 2.0 0.0 15 46
+ 1.641067 0 1 tcp 1040 ------- 1 0.0 2.0 31 62
- 1.641067 0 1 tcp 1040 ------- 1 0.0 2.0 31 62
+ 1.641067 0 1 tcp 1040 ------- 1 0.0 2.0 32 63
r 1.642 2 1 ack 40 ------- 1 2.0 0.0 17 48
+ 1.642 1 0 ack 40 ------- 1 2.0 0.0 17 48
- 1.642 1 0 ack 40 ------- 1 2.0 0.0 17 48
- 1.645227 0 1 tcp 1040 ------- 1 0.0 2.0 32 63
r 1.646613 1 0 ack 40 ------- 1 2.0 0.0 16 47
+ 1.646613 0 1 tcp 1040 ------- 1 0.0 2.0 33 64
+ 1.646613 0 1 tcp 1040 ------- 1 0.0 2.0 34 65
r 1.647547 2 1 ack 40 ------- 1 2.0 0.0 18 49
+ 1.647547 1 0 ack 40 ------- 1 2.0 0.0 18 49
- 1.647547 1 0 ack 40 ------- 1 2.0 0.0 18 49
- 1.649387 0 1 tcp 1040 ------- 1 0.0 2.0 33 64
r 1.65216 1 0 ack 40 ------- 1 2.0 0.0 17 48
+ 1.65216 0 1 tcp 1040 ------- 1 0.0 2.0 35 66
+ 1.65216 0 1 tcp 1040 ------- 1 0.0 2.0 36 67
r 1.653093 2 1 ack 40 ------- 1 2.0 0.0 19 50
+ 1.653093 1 0 ack 40 ------- 1 2.0 0.0 19 50
- 1.653093 1 0 ack 40 ------- 1 2.0 0.0 19 50
- 1.653547 0 1 tcp 1040 ------- 1 0.0 2.0 34 65
r 1.655227 0 1 tcp 1040 ------- 1 0.0 2.0 31 62
+ 1.655227 1 2 tcp 1040 ------- 1 0.0 2.0 31 62
- 1.655227 1 2 tcp 1040 ------- 1 0.0 2.0 31 62
r 1.657707 1 0 ack 40 ------- 1 2.0 0.0 18 49
+ 1.657707 0 1 tcp 1040 ------- 1 0.0 2.0 37 68
+ 1.657707 0 1 tcp 1040 ------- 1 0.0 2.0 38 69
- 1.657707 0 1 tcp 1040 ------- 1 0.0 2.0 35 66
r 1.65864 2 1 ack 40 ------- 1 2.0 0.0 20 51
+ 1.65864 1 0 ack 40 ------- 1 2.0 0.0 20 51
- 1.65864 1 0 ack 40 ------- 1 2.0 0.0 20 51
r 1.659387 0 1 tcp 1040 ------- 1 0.0 2.0 32 63
+ 1.659387 1 2 tcp 1040 ------- 1 0.0 2.0 32 63
- 1.660773 1 2 tcp 1040 ------- 1 0.0 2.0 32 63
- 1.661867 0 1 tcp 1040 ------- 1 0.0 2.0 36 67
r 1.663253 1 0 ack 40 ------- 1 2.0 0.0 19 50
+ 1.663253 0 1 tcp 1040 ------- 1 0.0 2.0 39 70
r 1.663547 0 1 tcp 1040 ------- 1 0.0 2.0 33 64
+ 1.663547 1 2 tcp 1040 ------- 1 0.0 2.0 33 64
r 1.664187 2 1 ack 40 ------- 1 2.0 0.0 21 52
+ 1.664187 1 0 ack 40 ------- 1 2.0 0.0 21 52
- 1.664187 1 0 ack 40 ------- 1 2.0 0.0 21 52
- 1.666027 0 1 tcp 1040 ------- 1 0.0 2.0 37 68
- 1.66632 1 2 tcp 1040 ------- 1 0.0 2.0 33 64
r 1.667707 0 1 tcp 1040 ------- 1 0.0 2.0 34 65
+ 1.667707 1 2 tcp 1040 ------- 1 0.0 2.0 34 65
r 1.6688 1 0 ack 40 ------- 1 2.0 0.0 20 51
+ 1.6688 0 1 tcp 1040 ------- 1 0.0 2.0 40 71
r 1.669733 2 1 ack 40 ------- 1 2.0 0.0 22 53
+ 1.669733 1 0 ack 40 ------- 1 2.0 0.0 22 53
- 1.669733 1 0 ack 40 ------- 1 2.0 0.0 22 53
- 1.670187 0 1 tcp 1040 ------- 1 0.0 2.0 38 69
r 1.671867 0 1 tcp 1040 ------- 1 0.0 2.0 35 66
+ 1.671867 1 2 tcp 1040 ------- 1 0.0 2.0 35 66
- 1.671867 1 2 tcp 1040 ------- 1 0.0 2.0 34 65
r 1.674347 1 0 ack 40 ------- 1 2.0 0.0 21 52
+ 1.674347 0 1 tcp 1040 ------- 1 0.0 2.0 41 72
- 1.674347 0 1 tcp 1040 ------- 1 0.0 2.0 39 70
r 1.67528 2 1 ack 40 ------- 1 2.0 0.0 23 54
+ 1.67528 1 0 ack 40 ------- 1 2.0 0.0 23 54
- 1.67528 1 0 ack 40 ------- 1 2.0 0.0 23 54
r 1.676027 0 1 tcp 1040 ------- 1 0.0 2.0 36 67
+ 1.676027 1 2 tcp 1040 ------- 1 0.0 2.0 36 67
- 1.677413 1 2 tcp 1040 ------- 1 0.0 2.0 35 66
- 1.678507 0 1 tcp 1040 ------- 1 0.0 2.0 40 71
r 1.679893 1 0 ack 40 ------- 1 2.0 0.0 22 53
+ 1.679893 0 1 tcp 1040 ------- 1 0.0 2.0 42 73
r 1.680187 0 1 tcp 1040 ------- 1 0.0 2.0 37 68
+ 1.680187 1 2 tcp 1040 ------- 1 0.0 2.0 37 68
r 1.680827 2 1 ack 40 ------- 1 2.0 0.0 24 55
+ 1.680827 1 0 ack 40 ------- 1 2.0 0.0 24 55
- 1.680827 1 0 ack 40 ------- 1 2.0 0.0 24 55
- 1.682667 0 1 tcp 1040 ------- 1 0.0 2.0 41 72
- 1.68296 1 2 tcp 1040 ------- 1 0.0 2.0 36 67
r 1.684347 0 1 tcp 1040 ------- 1 0.0 2.0 38 69
+ 1.684347 1 2 tcp 1040 ------- 1 0.0 2.0 38 69
r 1.68544 1 0 ack 40 ------- 1 2.0 0.0 23 54
+ 1.68544 0 1 tcp 1040 ------- 1 0.0 2.0 43 74
r 1.686373 2 1 ack 40 ------- 1 2.0 0.0 25 56
+ 1.686373 1 0 ack 40 ------- 1 2.0 0.0 25 56
- 1.686373 1 0 ack 40 ------- 1 2.0 0.0 25 56
- 1.686827 0 1 tcp 1040 ------- 1 0.0 2.0 42 73
r 1.688507 0 1 tcp 1040 ------- 1 0.0 2.0 39 70
+ 1.688507 1 2 tcp 1040 ------- 1 0.0 2.0 39 70
- 1.688507 1 2 tcp 1040 ------- 1 0.0 2.0 37 68
r 1.690987 1 0 ack 40 ------- 1 2.0 0.0 24 55
+ 1.690987 0 1 tcp 1040 ------- 1 0.0 2.0 44 75
- 1.690987 0 1 tcp 1040 ------- 1 0.0 2.0 43 74
r 1.69192 2 1 ack 40 ------- 1 2.0 0.0 26 57
+ 1.69192 1 0 ack 40 ------- 1 2.0 0.0 26 57
- 1.69192 1 0 ack 40 ------- 1 2.0 0.0 26 57
r 1.692667 0 1 tcp 1040 ------- 1 0.0 2.0 40 71
+ 1.692667 1 2 tcp 1040 ------- 1 0.0 2.0 40 71
- 1.694053 1 2 tcp 1040 ------- 1 0.0 2.0 38 69
- 1.695147 0 1 tcp 1040 ------- 1 0.0 2.0 44 75
r 1.696533 1 0 ack 40 ------- 1 2.0 0.0 25 56
+ 1.696533 0 1 tcp 1040 ------- 1 0.0 2.0 45 76
r 1.696827 0 1 tcp 1040 ------- 1 0.0 2.0 41 72
+ 1.696827 1 2 tcp 1040 ------- 1 0.0 2.0 41 72
r 1.697467 2 1 ack 40 ------- 1 2.0 0.0 27 58
+ 1.697467 1 0 ack 40 ------- 1 2.0 0.0 27 58
- 1.697467 1 0 ack 40 ------- 1 2.0 0.0 27 58
- 1.699307 0 1 tcp 1040 ------- 1 0.0 2.0 45 76
- 1.6996 1 2 tcp 1040 ------- 1 0.0 2.0 39 70
r 1.700987 0 1 tcp 1040 ------- 1 0.0 2.0 42 73
+ 1.700987 1 2 tcp 1040 ------- 1 0.0 2.0 42 73
r 1.70208 1 0 ack 40 ------- 1 2.0 0.0 26 57
+ 1.70208 0 1 tcp 1040 ------- 1 0.0 2.0 46 77
r 1.703013 2 1 ack 40 ------- 1 2.0 0.0 28 59
+ 1.703013 1 0 ack 40 ------- 1 2.0 0.0 28 59
- 1.703013 1 0 ack 40 ------- 1 2.0 0.0 28 59
- 1.703467 0 1 tcp 1040 ------- 1 0.0 2.0 46 77
r 1.705147 0 1 tcp 1040 ------- 1 0.0 2.0 43 74
+ 1.705147 1 2 tcp 1040 ------- 1 0.0 2.0 43 74
- 1.705147 1 2 tcp 1040 ------- 1 0.0 2.0 40 71
r 1.707627 1 0 ack 40 ------- 1 2.0 0.0 27 58
+ 1.707627 0 1 tcp 1040 ------- 1 0.0 2.0 47 78
- 1.707627 0 1 tcp 1040 ------- 1 0.0 2.0 47 78
r 1.70856 2 1 ack 40 ------- 1 2.0 0.0 29 60
+ 1.70856 1 0 ack 40 ------- 1 2.0 0.0 29 60
- 1.70856 1 0 ack 40 ------- 1 2.0 0.0 29 60
r 1.709307 0 1 tcp 1040 ------- 1 0.0 2.0 44 75
+ 1.709307 1 2 tcp 1040 ------- 1 0.0 2.0 44 75
- 1.710693 1 2 tcp 1040 ------- 1 0.0 2.0 41 72
r 1.713173 1 0 ack 40 ------- 1 2.0 0.0 28 59
+ 1.713173 0 1 tcp 1040 ------- 1 0.0 2.0 48 79
- 1.713173 0 1 tcp 1040 ------- 1 0.0 2.0 48 79
r 1.713467 0 1 tcp 1040 ------- 1 0.0 2.0 45 76
+ 1.713467 1 2 tcp 1040 ------- 1 0.0 2.0 45 76
r 1.714107 2 1 ack 40 ------- 1 2.0 0.0 30 61
+ 1.714107 1 0 ack 40 ------- 1 2.0 0.0 30 61
- 1.714107 1 0 ack 40 ------- 1 2.0 0.0 30 61
- 1.71624 1 2 tcp 1040 ------- 1 0.0 2.0 42 73
r 1.717627 0 1 tcp 1040 ------- 1 0.0 2.0 46 77
+ 1.717627 1 2 tcp 1040 ------- 1 0.0 2.0 46 77
r 1.71872 1 0 ack 40 ------- 1 2.0 0.0 29 60
+ 1.71872 0 1 tcp 1040 ------- 1 0.0 2.0 49 80
- 1.71872 0 1 tcp 1040 ------- 1 0.0 2.0 49 80
r 1.721787 0 1 tcp 1040 ------- 1 0.0 2.0 47 78
+ 1.721787 1 2 tcp 1040 ------- 1 0.0 2.0 47 78
- 1.721787 1 2 tcp 1040 ------- 1 0.0 2.0 43 74
r 1.724267 1 0 ack 40 ------- 1 2.0 0.0 30 61
+ 1.724267 0 1 tcp 1040 ------- 1 0.0 2.0 50 81
- 1.724267 0 1 tcp 1040 ------- 1 0.0 2.0 50 81
r 1.727333 0 1 tcp 1040 ------- 1 0.0 2.0 48 79
+ 1.727333 1 2 tcp 1040 ------- 1 0.0 2.0 48 79
- 1.727333 1 2 tcp 1040 ------- 1 0.0 2.0 44 75
r 1.73288 0 1 tcp 1040 ------- 1 0.0 2.0 49 80
+ 1.73288 1 2 tcp 1040 ------- 1 0.0 2.0 49 80
- 1.73288 1 2 tcp 1040 ------- 1 0.0 2.0 45 76
r 1.738427 0 1 tcp 1040 ------- 1 0.0 2.0 50 81
+ 1.738427 1 2 tcp 1040 ------- 1 0.0 2.0 50 81
- 1.738427 1 2 tcp 1040 ------- 1 0.0 2.0 46 77
- 1.743973 1 2 tcp 1040 ------- 1 0.0 2.0 47 78
- 1.74952 1 2 tcp 1040 ------- 1 0.0 2.0 48 79
- 1.755067 1 2 tcp 1040 ------- 1 0.0 2.0 49 80
- 1.760613 1 2 tcp 1040 ------- 1 0.0 2.0 50 81
r 1.760773 1 2 tcp 1040 ------- 1 0.0 2.0 31 62
+ 1.760773 2 1 ack 40 ------- 1 2.0 0.0 31 82
- 1.760773 2 1 ack 40 ------- 1 2.0 0.0 31 82
r 1.76632 1 2 tcp 1040 ------- 1 0.0 2.0 32 63
+ 1.76632 2 1 ack 40 ------- 1 2.0 0.0 32 83
- 1.76632 2 1 ack 40 ------- 1 2.0 0.0 32 83
r 1.771867 1 2 tcp 1040 ------- 1 0.0 2.0 33 64
+ 1.771867 2 1 ack 40 ------- 1 2.0 0.0 33 84
- 1.771867 2 1 ack 40 ------- 1 2.0 0.0 33 84
r 1.777413 1 2 tcp 1040 ------- 1 0.0 2.0 34 65
+ 1.777413 2 1 ack 40 ------- 1 2.0 0.0 34 85
- 1.777413 2 1 ack 40 ------- 1 2.0 0.0 34 85
r 1.78296 1 2 tcp 1040 ------- 1 0.0 2.0 35 66
+ 1.78296 2 1 ack 40 ------- 1 2.0 0.0 35 86
- 1.78296 2 1 ack 40 ------- 1 2.0 0.0 35 86
r 1.788507 1 2 tcp 1040 ------- 1 0.0 2.0 36 67
+ 1.788507 2 1 ack 40 ------- 1 2.0 0.0 36 87
- 1.788507 2 1 ack 40 ------- 1 2.0 0.0 36 87
r 1.794053 1 2 tcp 1040 ------- 1 0.0 2.0 37 68
+ 1.794053 2 1 ack 40 ------- 1 2.0 0.0 37 88
- 1.794053 2 1 ack 40 ------- 1 2.0 0.0 37 88
r 1.7996 1 2 tcp 1040 ------- 1 0.0 2.0 38 69
+ 1.7996 2 1 ack 40 ------- 1 2.0 0.0 38 89
- 1.7996 2 1 ack 40 ------- 1 2.0 0.0 38 89
r 1.805147 1 2 tcp 1040 ------- 1 0.0 2.0 39 70
+ 1.805147 2 1 ack 40 ------- 1 2.0 0.0 39 90
- 1.805147 2 1 ack 40 ------- 1 2.0 0.0 39 90
r 1.810693 1 2 tcp 1040 ------- 1 0.0 2.0 40 71
+ 1.810693 2 1 ack 40 ------- 1 2.0 0.0 40 91
- 1.810693 2 1 ack 40 ------- 1 2.0 0.0 40 91
r 1.81624 1 2 tcp 1040 ------- 1 0.0 2.0 41 72
+ 1.81624 2 1 ack 40 ------- 1 2.0 0.0 41 92
- 1.81624 2 1 ack 40 ------- 1 2.0 0.0 41 92
r 1.821787 1 2 tcp 1040 ------- 1 0.0 2.0 42 73
+ 1.821787 2 1 ack 40 ------- 1 2.0 0.0 42 93
- 1.821787 2 1 ack 40 ------- 1 2.0 0.0 42 93
r 1.827333 1 2 tcp 1040 ------- 1 0.0 2.0 43 74
+ 1.827333 2 1 ack 40 ------- 1 2.0 0.0 43 94
- 1.827333 2 1 ack 40 ------- 1 2.0 0.0 43 94
r 1.83288 1 2 tcp 1040 ------- 1 0.0 2.0 44 75
+ 1.83288 2 1 ack 40 ------- 1 2.0 0.0 44 95
- 1.83288 2 1 ack 40 ------- 1 2.0 0.0 44 95
r 1.838427 1 2 tcp 1040 ------- 1 0.0 2.0 45 76
+ 1.838427 2 1 ack 40 ------- 1 2.0 0.0 45 96
- 1.838427 2 1 ack 40 ------- 1 2.0 0.0 45 96
r 1.843973 1 2 tcp 1040 ------- 1 0.0 2.0 46 77
+ 1.843973 2 1 ack 40 ------- 1 2.0 0.0 46 97
- 1.843973 2 1 ack 40 ------- 1 2.0 0.0 46 97
r 1.84952 1 2 tcp 1040 ------- 1 0.0 2.0 47 78
+ 1.84952 2 1 ack 40 ------- 1 2.0 0.0 47 98
- 1.84952 2 1 ack 40 ------- 1 2.0 0.0 47 98
r 1.855067 1 2 tcp 1040 ------- 1 0.0 2.0 48 79
+ 1.855067 2 1 ack 40 ------- 1 2.0 0.0 48 99
- 1.855067 2 1 ack 40 ------- 1 2.0 0.0 48 99
r 1.860613 1 2 tcp 1040 ------- 1 0.0 2.0 49 80
+ 1.860613 2 1 ack 40 ------- 1 2.0 0.0 49 100
- 1.860613 2 1 ack 40 ------- 1 2.0 0.0 49 100
r 1.860987 2 1 ack 40 ------- 1 2.0 0.0 31 82
+ 1.860987 1 0 ack 40 ------- 1 2.0 0.0 31 82
- 1.860987 1 0 ack 40 ------- 1 2.0 0.0 31 82
r 1.86616 1 2 tcp 1040 ------- 1 0.0 2.0 50 81
+ 1.86616 2 1 ack 40 ------- 1 2.0 0.0 50 101
- 1.86616 2 1 ack 40 ------- 1 2.0 0.0 50 101
r 1.866533 2 1 ack 40 ------- 1 2.0 0.0 32 83
+ 1.866533 1 0 ack 40 ------- 1 2.0 0.0 32 83
- 1.866533 1 0 ack 40 ------- 1 2.0 0.0 32 83
r 1.871147 1 0 ack 40 ------- 1 2.0 0.0 31 82
+ 1.871147 0 1 tcp 1040 ------- 1 0.0 2.0 51 102
- 1.871147 0 1 tcp 1040 ------- 1 0.0 2.0 51 102
r 1.87208 2 1 ack 40 ------- 1 2.0 0.0 33 84
+ 1.87208 1 0 ack 40 ------- 1 2.0 0.0 33 84
- 1.87208 1 0 ack 40 ------- 1 2.0 0.0 33 84
r 1.876693 1 0 ack 40 ------- 1 2.0 0.0 32 83
+ 1.876693 0 1 tcp 1040 ------- 1 0.0 2.0 52 103
- 1.876693 0 1 tcp 1040 ------- 1 0.0 2.0 52 103
r 1.877627 2 1 ack 40 ------- 1 2.0 0.0 34 85
+ 1.877627 1 0 ack 40 ------- 1 2.0 0.0 34 85
- 1.877627 1 0 ack 40 ------- 1 2.0 0.0 34 85
r 1.88224 1 0 ack 40 ------- 1 2.0 0.0 33 84
+ 1.88224 0 1 tcp 1040 ------- 1 0.0 2.0 53 104
- 1.88224 0 1 tcp 1040 ------- 1 0.0 2.0 53 104
r 1.883173 2 1 ack 40 ------- 1 2.0 0.0 35 86
+ 1.883173 1 0 ack 40 ------- 1 2.0 0.0 35 86
- 1.883173 1 0 ack 40 ------- 1 2.0 0.0 35 86
r 1.885307 0 1 tcp 1040 ------- 1 0.0 2.0 51 102
+ 1.885307 1 2 tcp 1040 ------- 1 0.0 2.0 51 102
- 1.885307 1 2 tcp 1040 ------- 1 0.0 2.0 51 102
r 1.887787 1 0 ack 40 ------- 1 2.0 0.0 34 85
+ 1.887787 0 1 tcp 1040 ------- 1 0.0 2.0 54 105
- 1.887787 0 1 tcp 1040 ------- 1 0.0 2.0 54 105
r 1.88872 2 1 ack 40 ------- 1 2.0 0.0 36 87
+ 1.88872 1 0 ack 40 ------- 1 2.0 0.0 36 87
- 1.88872 1 0 ack 40 ------- 1 2.0 0.0 36 87
r 1.890853 0 1 tcp 1040 ------- 1 0.0 2.0 52 103
+ 1.890853 1 2 tcp 1040 ------- 1 0.0 2.0 52 103
- 1.890853 1 2 tcp 1040 ------- 1 0.0 2.0 52 103
r 1.893333 1 0 ack 40 ------- 1 2.0 0.0 35 86
+ 1.893333 0 1 tcp 1040 ------- 1 0.0 2.0 55 106
- 1.893333 0 1 tcp 1040 ------- 1 0.0 2.0 55 106
r 1.894267 2 1 ack 40 ------- 1 2.0 0.0 37 88
+ 1.894267 1 0 ack 40 ------- 1 2.0 0.0 37 88
- 1.894267 1 0 ack 40 ------- 1 2.0 0.0 37 88
r 1.8964 0 1 tcp 1040 ------- 1 0.0 2.0 53 104
+ 1.8964 1 2 tcp 1040 ------- 1 0.0 2.0 53 104
- 1.8964 1 2 tcp 1040 ------- 1 0.0 2.0 53 104
r 1.89888 1 0 ack 40 ------- 1 2.0 0.0 36 87
+ 1.89888 0 1 tcp 1040 ------- 1 0.0 2.0 56 107
- 1.89888 0 1 tcp 1040 ------- 1 0.0 2.0 56 107
r 1.899813 2 1 ack 40 ------- 1 2.0 0.0 38 89
+ 1.899813 1 0 ack 40 ------- 1 2.0 0.0 38 89
- 1.899813 1 0 ack 40 ------- 1 2.0 0.0 38 89
r 1.901947 0 1 tcp 1040 ------- 1 0.0 2.0 54 105
+ 1.901947 1 2 tcp 1040 ------- 1 0.0 2.0 54 105
- 1.901947 1 2 tcp 1040 ------- 1 0.0 2.0 54 105
r 1.904427 1 0 ack 40 ------- 1 2.0 0.0 37 88
+ 1.904427 0 1 tcp 1040 ------- 1 0.0 2.0 57 108
- 1.904427 0 1 tcp 1040 ------- 1 0.0 2.0 57 108
r 1.90536 2 1 ack 40 ------- 1 2.0 0.0 39 90
+ 1.90536 1 0 ack 40 ------- 1 2.0 0.0 39 90
- 1.90536 1 0 ack 40 ------- 1 2.0 0.0 39 90
r 1.907493 0 1 tcp 1040 ------- 1 0.0 2.0 55 106
+ 1.907493 1 2 tcp 1040 ------- 1 0.0 2.0 55 106
- 1.907493 1 2 tcp 1040 ------- 1 0.0 2.0 55 106
r 1.909973 1 0 ack 40 ------- 1 2.0 0.0 38 89
+ 1.909973 0 1 tcp 1040 ------- 1 0.0 2.0 58 109
- 1.909973 0 1 tcp 1040 ------- 1 0.0 2.0 58 109
r 1.910907 2 1 ack 40 ------- 1 2.0 0.0 40 91
+ 1.910907 1 0 ack 40 ------- 1 2.0 0.0 40 91
- 1.910907 1 0 ack 40 ------- 1 2.0 0.0 40 91
r 1.91304 0 1 tcp 1040 ------- 1 0.0 2.0 56 107
+ 1.91304 1 2 tcp 1040 ------- 1 0.0 2.0 56 107
- 1.91304 1 2 tcp 1040 ------- 1 0.0 2.0 56 107
r 1.91552 1 0 ack 40 ------- 1 2.0 0.0 39 90
+ 1.91552 0 1 tcp 1040 ------- 1 0.0 2.0 59 110
- 1.91552 0 1 tcp 1040 ------- 1 0.0 2.0 59 110
r 1.916453 2 1 ack 40 ------- 1 2.0 0.0 41 92
+ 1.916453 1 0 ack 40 ------- 1 2.0 0.0 41 92
- 1.916453 1 0 ack 40 ------- 1 2.0 0.0 41 92
r 1.918587 0 1 tcp 1040 ------- 1 0.0 2.0 57 108
+ 1.918587 1 2 tcp 1040 ------- 1 0.0 2.0 57 108
- 1.918587 1 2 tcp 1040 ------- 1 0.0 2.0 57 108
r 1.921067 1 0 ack 40 ------- 1 2.0 0.0 40 91
+ 1.921067 0 1 tcp 1040 ------- 1 0.0 2.0 60 111
- 1.921067 0 1 tcp 1040 ------- 1 0.0 2.0 60 111
r 1.922 2 1 ack 40 ------- 1 2.0 0.0 42 93
+ 1.922 1 0 ack 40 ------- 1 2.0 0.0 42 93
- 1.922 1 0 ack 40 ------- 1 2.0 0.0 42 93
r 1.924133 0 1 tcp 1040 ------- 1 0.0 2.0 58 109
+ 1.924133 1 2 tcp 1040 ------- 1 0.0 2.0 58 109
- 1.924133 1 2 tcp 1040 ------- 1 0.0 2.0 58 109
r 1.926613 1 0 ack 40 ------- 1 2.0 0.0 41 92
+ 1.926613 0 1 tcp 1040 ------- 1 0.0 2.0 61 112
- 1.926613 0 1 tcp 1040 ------- 1 0.0 2.0 61 112
r 1.927547 2 1 ack 40 ------- 1 2.0 0.0 43 94
+ 1.927547 1 0 ack 40 ------- 1 2.0 0.0 43 94
- 1.927547 1 0 ack 40 ------- 1 2.0 0.0 43 94
r 1.92968 0 1 tcp 1040 ------- 1 0.0 2.0 59 110
+ 1.92968 1 2 tcp 1040 ------- 1 0.0 2.0 59 110
- 1.92968 1 2 tcp 1040 ------- 1 0.0 2.0 59 110
r 1.93216 1 0 ack 40 ------- 1 2.0 0.0 42 93
+ 1.93216 0 1 tcp 1040 ------- 1 0.0 2.0 62 113
- 1.93216 0 1 tcp 1040 ------- 1 0.0 2.0 62 113
r 1.933093 2 1 ack 40 ------- 1 2.0 0.0 44 95
+ 1.933093 1 0 ack 40 ------- 1 2.0 0.0 44 95
- 1.933093 1 0 ack 40 ------- 1 2.0 0.0 44 95
r 1.935227 0 1 tcp 1040 ------- 1 0.0 2.0 60 111
+ 1.935227 1 2 tcp 1040 ------- 1 0.0 2.0 60 111
- 1.935227 1 2 tcp 1040 ------- 1 0.0 2.0 60 111
r 1.937707 1 0 ack 40 ------- 1 2.0 0.0 43 94
+ 1.937707 0 1 tcp 1040 ------- 1 0.0 2.0 63 114
- 1.937707 0 1 tcp 1040 ------- 1 0.0 2.0 63 114